
                                 *****************
                                 * O   R   C   A *
                                 *****************

                                            #,                                       
                                            ###                                      
                                            ####                                     
                                            #####                                    
                                            ######                                   
                                           ########,                                 
                                     ,,################,,,,,                         
                               ,,#################################,,                 
                          ,,##########################################,,             
                       ,#########################################, ''#####,          
                    ,#############################################,,   '####,        
                  ,##################################################,,,,####,       
                ,###########''''           ''''###############################       
              ,#####''   ,,,,##########,,,,          '''####'''          '####       
            ,##' ,,,,###########################,,,                        '##       
           ' ,,###''''                  '''############,,,                           
         ,,##''                                '''############,,,,        ,,,,,,###''
      ,#''                                            '''#######################'''  
     '                                                          ''''####''''         
             ,#######,   #######,   ,#######,      ##                                
            ,#'     '#,  ##    ##  ,#'     '#,    #''#        ,####,   ,####,        
            ##       ##  ##   ,#'  ##            #'  '#       #'       #'  '#        
            ##       ##  #######   ##           ,######,      #####,   #    #        
            '#,     ,#'  ##    ##  '#,     ,#' ,#      #,     #,   #   #,  ,#        
             '#######'   ##     ##  '#######'  #'      '#     '####' # '####'        



                #########################################################
                #                        -***-                          #
                #          Department of theory and spectroscopy        #
                #                                                       #
                #                      Frank Neese                      #
                #                                                       #
                #     Directorship, Architecture, Infrastructure        #
                #                    SHARK, DRIVERS                     #
                #        Core code/Algorithms in most modules           #
                #                                                       #
                #        Max Planck Institute fuer Kohlenforschung      #
                #                Kaiser Wilhelm Platz 1                 #
                #                 D-45470 Muelheim/Ruhr                 #
                #                      Germany                          #
                #                                                       #
                #                  All rights reserved                  #
                #                        -***-                          #
                #########################################################


                         Program Version 6.0.1  -  RELEASE   -


 With contributions from (in alphabetic order):
[Max-Planck-Institut fuer Kohlenforschung]                               
  Daniel Aravena         : Magnetic Suceptibility                        
  Michael Atanasov       : Ab Initio Ligand Field Theory (pilot matlab implementation)
  Alexander A. Auer      : GIAO ZORA, VPT2 properties, NMR spectrum      
  Ute Becker             : All parallelization in ORCA, NUMFREQ, NUMCALC 
  Giovanni Bistoni       : ED, misc. LED, open-shell LED, HFLD           
  Martin Brehm           : Molecular dynamics                            
  Dmytro Bykov           : pre 5.0 version of the SCF Hessian            
  Marcos Casanova-Páez   : Triplet and SCS-CIS(D). UHF-(DLPNO)-IP/EA/STEOM-CCSD. UHF-CVS-IP/STEOM-CCSD   
  Vijay G. Chilkuri      : MRCI spin determinant printing, contributions to CSF-ICE 
  Pauline Colinet        : FMM embedding                                 
  Dipayan Datta          : RHF DLPNO-CCSD density                        
  Achintya Kumar Dutta   : EOM-CC, STEOM-CC                              
  Nicolas Foglia         : Exact transition moments, OPA infrastructure, MCD improvements    
  Dmitry Ganyushin       : Spin-Orbit,Spin-Spin,Magnetic field MRCI      
  Miquel Garcia-Rates    : C-PCM and meta-GGA Hessian, CCSD/C-PCM, Gaussian charge scheme 
  Tiago L. C. Gouveia    : GS-ROHF, GS-ROCIS                             
  Yang Guo               : DLPNO-NEVPT2, F12-NEVPT2, CIM, IAO-localization        
  Andreas Hansen         : Spin unrestricted coupled pair/coupled cluster methods 
  Ingolf Harden          : AUTO-CI MPn and infrastructure                
  Benjamin Helmich-Paris : MC-RPA, TRAH-(SCF,CASSCF), AVAS, COSX integrals, SCF dyn. polar. 
  Lee Huntington         : MR-EOM, pCC                                   
  Robert Izsak           : Overlap fitted RIJCOSX, COSX-SCS-MP3, EOM     
  Riya Kayal             : Wick's Theorem for AUTO-CI, AUTO-CI UHF-CCSDT 
  Emily Kempfer          : AUTO-CI, RHF CISDT and CCSDT                  
  Christian Kollmar      : KDIIS, OOCD, Brueckner-CCSD(T), CCSD density, CASPT2, CASPT2-K, improved NEVPT2 
  Axel Koslowski         : Symmetry handling                             
  Simone Kossmann        : meta-GGA functionals, TD-DFT gradient, OOMP2, (MP2 Hessian; deprecated post 5.0) 
  Lucas Lang             : DCDCAS                                        
  Marvin Lechner         : AUTO-CI (C++ implementation), FIC-MRCC        
  Spencer Leger          : CASSCF response                               
  Dagmar Lenk            : GEPOL surface, SMD, ORCA-2-JSON               
  Dimitrios Liakos       : Extrapolation schemes; Compound Job, initial MDCI parallelization 
  Dimitrios Manganas     : Further ROCIS development; embedding schemes. LFT, Crystal Embedding 
  Dimitrios Pantazis     : SARC Basis sets                               
  Anastasios Papadopoulos: AUTO-CI, single reference methods and gradients 
  Taras Petrenko         : pre 6.0 DFT Hessian and TD-DFT gradient, (ASA, deprecated), ECA, 1-Electron XAS/XES, NRVS 
  Peter Pinski           : DLPNO-MP2, DLPNO-MP2 Gradient                 
  Christoph Reimann      : Effective Core Potentials                     
  Marius Retegan         : Local ZFS, SOC                                
  Christoph Riplinger    : Optimizer, TS searches, QM/MM, DLPNO-CCSD(T), (RO)-DLPNO pert. Triples 
  Michael Roemelt        : Original ROCIS implementation                 
  Masaaki Saitow         : Open-shell DLPNO-CCSD energy and density      
  Barbara Sandhoefer     : DKH picture change effects                    
  Kantharuban Sivalingam : CASSCF convergence/infrastructure, NEVPT2 and variants, FIC-MRCI 
  Bernardo de Souza      : ESD, SOC TD-DFT                               
  Georgi L. Stoychev     : AutoAux, RI-MP2 NMR, DLPNO-MP2 response, X2C  
  Van Anh Tran           : RI-MP2 g-tensors                              
  Willem Van den Heuvel  : Paramagnetic NMR                              
  Zikuan Wang            : NOTCH, Electric field optimization            
  Frank Wennmohs         : Technical directorship and infrastructure     
  Hang Xu                : AUTO-CI-Response properties                   
                                                                         
[FACCTs GmbH]                                                            
  Markus Bursch, Miquel Garcia-Rates, Christoph Riplinger, Bernardo de Souza, Georgi L. Stoychev 
                                                                 
  APM, Basis sets (HGBS, AHGBS, def-TZVP (Ac-Lr), def2-XVPD (La-Lu)), CI-OPT, improved COSX, DLPNO-Multilevel,           
  DOCKER, DRACO, updates on ESD, GOAT, IRC, LR-CPCM, MBIS, meta-GGA TD-DFT gradient, ML-optimized integration grids, 
  MM, NACMEs, nearIR, NEB, NEB-TS, NL-DFT gradient (VV10), 2- and 3-layer-ONIOM, interface openCOSMO-RS, QMMM,   
  Crystal-QMMM, SF, symmetry and pop. for TD-DFT, r2SCAN hybrids, SOLVATOR                                   
                                                                         
[Other institutions]                                                     
  V. Asgeirsson          : NEB                                           
  Christoph Bannwarth    : sTDA-DFT, sTD-DFT, PBEh-3c, B97-3c, D3        
  Sebastian Ehlert       : rSCAN, r2SCAN, r2SCAN-3c, D4, dhf basis sets  
  Marvin Friede          : D4 for Fr, Ra, Ac-Lr                          
  Lars Goerigk           : TD-DFT with DH, B97 family of functionals     
  Stefan Grimme          : VdW corrections, initial TS optimization, DFT functionals, gCP, sTDA/sTD-DF 
  Waldemar Hujo          : DFT-NL                                        
  H. Jonsson             : NEB                                           
  Holger Kruse           : gCP                                           
  Marcel Mueller         : wB97X-3c, vDZP basis set                      
  Hagen Neugebauer       : wr2SCAN                                       
  Tobias Risthaus        : range-separated hybrid DFT                    
  Lukas Wittmann         : regularized MP2, r2SCAN double-hybrids, wr2SCAN        
                                                                         
We gratefully acknowledge several colleagues who have allowed us to      
interface, adapt or use parts of their codes:                            
  Ed Valeev, F. Pavosevic, A. Kumar             : LibInt (2-el integral package), F12 methods 
  Garnet Chan, S. Sharma, J. Yang, R. Olivares  : DMRG                   
  Ulf Ekstrom                                   : XCFun DFT Library      
  Mihaly Kallay                                 : mrcc  (arbitrary order and MRCC methods)
  Frank Weinhold                                : gennbo (NPA and NBO analysis)           
  Simon Mueller                                 : openCOSMO-RS                            
  Christopher J. Cramer and Donald G. Truhlar   : smd solvation model                     
  S Lehtola, MJT Oliveira, MAL Marques          : LibXC Library                           
  Liviu Ungur et al                             : ANISO software                          


 Your calculation uses the libint2 library for the computation of 2-el integrals
 For citations please refer to: http://libint.valeyev.net

 Your ORCA version has been built with support for libXC version: 6.2.2
 For citations please refer to: https://libxc.gitlab.io

 This ORCA versions uses:
   CBLAS   interface :  Fast vector & matrix operations
   LAPACKE interface :  Fast linear algebra routines
   SCALAPACK package :  Parallel linear algebra routines
   Shared memory     :  Shared parallel matrices
   BLAS/LAPACK       :  OpenBLAS 0.3.27  USE64BITINT DYNAMIC_ARCH NO_AFFINITY Zen SINGLE_THREADED
        Core in use  :  Zen
   Copyright (c) 2011-2014, The OpenBLAS Project


NOTE: MaxCore=6000 MB was set to SCF,MP2,MDCI,CIPSI,MRCI and CIS
      => If you want to overwrite this, your respective input block should be placed after the MaxCore statement
Your calculation utilizes the atom-pairwise dispersion correction
with the Becke-Johnson damping scheme (D3BJ)


Your calculation employs the composite approach B97-3c by Grimme and coworkers.
For the correct reference, please check the publication list of the Grimme group:
http://www.thch.uni-bonn.de/tc/index.php?section=publikationen&subsection=grimme#2017
   

XCFun DFT library Copyright 2009-2010 Ulf Ekstrom and contributors.
See http://admol.org/xcfun for more information.
This is free software; see the source code for copying conditions.
There is ABSOLUTELY NO WARRANTY; not even for MERCHANTABILITY or FITNESS FOR A PARTICULAR PURPOSE.
For details see the documentation.
Scientific users of this library should cite U. Ekstrom, L. Visscher, R. Bast, A. J. Thorvaldsen and K. Ruud;
J.Chem.Theor.Comp. 2010, DOI: 10.1021/ct100117s
XCFun Version 0.99 

================================================================================

----- Orbital basis set information -----
Your calculation utilizes the basis: def2-mTZVP
----- AuxJ basis set information -----
Your calculation utilizes the basis: def2-mTZVP/J
================================================================================
                                        WARNINGS
                       Please study these warnings very carefully!
================================================================================


WARNING: Geometry Optimization
  ===> : Switching off AutoStart
         For restart on a previous wavefunction, please use MOREAD

================================================================================
                                       INPUT FILE
================================================================================
NAME = m1_00_Vitamin_B7-GFN2_000-B97-3C-TZ.inp
|  1> %pal nprocs 16 end
|  2> %MaxCore 6000
|  3> # put your comments here
|  4> ! B97-3C  OPT  FREQ DEFGRID3 NOTRAH
|  5> %scf MaxIter 800 end
|  6> %output
|  7> Print [P_Hirshfeld] 1
|  8> end
|  9> %geom
| 10> MaxIter 3000
| 11>  TolE 1e-6 #TolE 5e-6 Energy change (a.u.)
| 12>  TolRMSG 3e-5 #TolRMSG 1e-4 RMS gradient (a.u.)
| 13>  TolMaxG 1e-4 #TolMaxG 3e-3 Max. element of gradient (a.u.)
| 14>  TolRMSD 2e-3 #TolRMSD 2e-3 RMS displacement (a.u.)
| 15>  TolMaxD 4e-3 #TolMaxD 4e-3 Max. displacement (a.u.)
| 16> end
| 17> * xyz 0 1
| 18>  S -0.70646513994838 -2.17209745962979 3.82534408401560
| 19>  O 4.39543004654681 -0.19954598393602 4.73835701949339
| 20>  O 4.54857604217356 0.62770153229402 2.21161268123161
| 21>  O 4.59096628485682 -1.54582308445337 1.70433946463001
| 22>  N 3.21812381938864 -2.05287509719690 4.04789570001594
| 23>  N 2.38927356438698 -0.82662428427667 5.67110043225008
| 24>  C 1.88266624313215 -2.55681350281972 4.19379625181240
| 25>  C 1.38196357459133 -1.83650097354276 5.47700786632316
| 26>  C 0.92890454910855 -2.22361168103848 3.01868451442786
| 27>  C -0.00821656107696 -1.24488583565898 5.22278272830354
| 28>  C 1.23584699006523 -0.91963237192690 2.27067517577214
| 29>  C 1.64087761929878 -1.16032629549331 0.81197405826046
| 30>  C 3.43807321262972 -0.95168270292464 4.81090969842383
| 31>  C 2.26726932515655 0.08835326406839 0.17020316169319
| 32>  C 3.80111536186808 -0.00035786210126 0.06062077647232
| 33>  C 4.37531377340680 -0.39161184826294 1.40007065620138
| 34>  H 1.89425599221489 -3.64312600687723 4.33008358105602
| 35>  H 1.34427682652772 -2.52921958029509 6.32710906570084
| 36>  H 0.89425025970856 -3.05628908583508 2.31566802971172
| 37>  H -0.67871293550774 -1.34798503401738 6.07168152543491
| 38>  H 0.06653812368493 -0.19371089609488 4.94065148228018
| 39>  H 0.34982316243144 -0.28067549718577 2.28265912254514
| 40>  H 2.03021049242039 -0.37628601132647 2.78505180361714
| 41>  H 3.77841947909649 -2.20899357313192 3.21406655291461
| 42>  H 2.40309744476581 -0.20010103107570 6.45475278456812
| 43>  H 2.35603390970821 -1.98340699472364 0.76342870990674
| 44>  H 0.75374490003501 -1.46337555934507 0.25302434623073
| 45>  H 1.87154462555870 0.22982115772167 -0.83641149636426
| 46>  H 2.00487537250871 0.97183318405514 0.75463963740984
| 47>  H 4.20291476365547 0.96506296749387 -0.24400440942113
| 48>  H 4.07329554503758 -0.76391288796447 -0.66840583238310
| 49>  H 4.75586233256947 0.34358803549954 3.14760082746637
| 50> *
| 51> 
| 52> 
| 53> 
| 54> 
| 55>                          ****END OF INPUT****
================================================================================

                       *****************************
                       * Geometry Optimization Run *
                       *****************************

Geometry optimization settings:
Update method            Update   .... BFGS
Choice of coordinates    CoordSys .... (2022) Redundant Internals
Initial Hessian          InHess   .... Almloef's Model
Max. no of cycles        MaxIter  .... 3000

Convergence Tolerances:
Energy Change            TolE     ....  1.0000e-06 Eh
Max. Gradient            TolMAXG  ....  1.0000e-04 Eh/bohr
RMS Gradient             TolRMSG  ....  3.0000e-05 Eh/bohr
Max. Displacement        TolMAXD  ....  4.0000e-03 bohr
RMS Displacement         TolRMSD  ....  2.0000e-03 bohr
Strict Convergence                .... False

------------------------------------------------------------------------------
                        ORCA OPTIMIZATION COORDINATE SETUP
------------------------------------------------------------------------------

The optimization will be done in redundant internal coordinates (2022)
Making redundant internal coordinates   ...  (2022 redundants) done
Evaluating the initial hessian          ...  (Almloef) done
Evaluating the coordinates              ...  done
Calculating the B-matrix                .... done
Calculating the G-matrix                .... done
Diagonalizing the G-matrix              .... done
Small eigenvalue found = 8.732e-03
Small eigenvalue found = 1.756e-02
The first mode is                       ....   81
The number of degrees of freedom        ....   90

    -----------------------------------------------------------------
                    Redundant Internal Coordinates


    -----------------------------------------------------------------
         Definition                    Initial Value    Approx d2E/dq
    -----------------------------------------------------------------
      1. B(C   6,N   4)                  1.4348         0.474657   
      2. B(C   7,C   6)                  1.5544         0.341535   
      3. B(C   7,N   5)                  1.4395         0.466532   
      4. B(C   8,C   6)                  1.5497         0.347493   
      5. B(C   8,S   0)                  1.8242         0.341769   
      6. B(C   9,C   7)                  1.5321         0.370744   
      7. B(C   9,S   0)                  1.8166         0.351449   
      8. B(C  10,C   8)                  1.5343         0.367712   
      9. B(C  11,C  10)                  1.5329         0.369612   
     10. B(C  12,N   5)                  1.3622         0.619801   
     11. B(C  12,N   4)                  1.3576         0.630231   
     12. B(C  12,O   1)                  1.2196         1.046368   
     13. B(C  13,C  11)                  1.5373         0.363626   
     14. B(C  14,C  13)                  1.5403         0.359687   
     15. B(C  15,O   2)                  1.3144         0.738766   
     16. B(C  15,C  14)                  1.5089         0.403620   
     17. B(C  15,O   3)                  1.2130         1.072310   
     18. B(H  16,C   6)                  1.0949         0.353689   
     19. B(H  17,C   7)                  1.0972         0.350639   
     20. B(H  18,C   8)                  1.0903         0.359685   
     21. B(H  19,C   9)                  1.0867         0.364549   
     22. B(H  20,C   9)                  1.0909         0.358856   
     23. B(H  21,C  10)                  1.0925         0.356873   
     24. B(H  22,C  10)                  1.0912         0.358453   
     25. B(H  23,N   4)                  1.0166         0.422267   
     26. B(H  23,O   3)                  1.8383         0.020640   
     27. B(H  24,N   5)                  1.0034         0.443310   
     28. B(H  25,C  11)                  1.0915         0.358185   
     29. B(H  26,C  11)                  1.0915         0.358184   
     30. B(H  27,C  13)                  1.0908         0.359019   
     31. B(H  28,C  13)                  1.0913         0.358374   
     32. B(H  29,C  14)                  1.0892         0.361209   
     33. B(H  30,C  14)                  1.0902         0.359810   
     34. B(H  31,O   3)                  2.3833         0.002787   
     35. B(H  31,O   1)                  1.7191         0.031976   
     36. B(H  31,O   2)                  0.9999         0.449096   
     37. A(C   8,S   0,C   9)           90.5728         0.392733   
     38. A(C  15,O   2,H  31)          112.6403         0.371952   
     39. A(C   6,N   4,C  12)          112.2420         0.409683   
     40. A(C   6,N   4,H  23)          122.8487         0.341448   
     41. A(C  12,N   4,H  23)          119.7501         0.358177   
     42. A(C   7,N   5,C  12)          112.9060         0.407228   
     43. A(C   7,N   5,H  24)          123.5717         0.343246   
     44. A(C  12,N   5,H  24)          122.6764         0.360130   
     45. A(C   8,C   6,H  16)          108.3143         0.319556   
     46. A(N   4,C   6,H  16)          110.5654         0.334382   
     47. A(C   7,C   6,C   8)          109.1537         0.353472   
     48. A(N   4,C   6,C   7)          102.7678         0.370478   
     49. A(C   7,C   6,H  16)          111.1260         0.318656   
     50. A(N   4,C   6,C   8)          114.8477         0.371582   
     51. A(C   6,C   7,H  17)          110.9832         0.318206   
     52. A(N   5,C   7,C   9)          112.7320         0.374637   
     53. A(N   5,C   7,C   6)          102.1808         0.369380   
     54. A(N   5,C   7,H  17)          111.2521         0.332946   
     55. A(C   9,C   7,H  17)          109.9489         0.322503   
     56. A(C   6,C   7,C   9)          109.5266         0.357377   
     57. A(C   6,C   8,H  18)          110.1382         0.320435   
     58. A(S   0,C   8,C   6)          102.8558         0.372082   
     59. A(C   6,C   8,C  10)          115.4226         0.357929   
     60. A(S   0,C   8,C  10)          111.7725         0.375729   
     61. A(S   0,C   8,H  18)          106.1523         0.335753   
     62. A(C  10,C   8,H  18)          109.9421         0.323417   
     63. A(S   0,C   9,C   7)          106.2197         0.378084   
     64. A(H  19,C   9,H  20)          109.6168         0.291243   
     65. A(C   7,C   9,H  20)          110.6595         0.323730   
     66. A(S   0,C   9,H  20)          108.6145         0.337188   
     67. A(C   7,C   9,H  19)          113.1796         0.324568   
     68. A(S   0,C   9,H  19)          108.3820         0.338074   
     69. A(C   8,C  10,C  11)          112.5405         0.361712   
     70. A(H  21,C  10,H  22)          107.0975         0.290220   
     71. A(C  11,C  10,H  22)          109.5355         0.323508   
     72. A(C   8,C  10,H  22)          109.8155         0.323235   
     73. A(C  11,C  10,H  21)          108.4558         0.323274   
     74. A(C   8,C  10,H  21)          109.2374         0.323001   
     75. A(C  13,C  11,H  26)          110.0544         0.322603   
     76. A(C  10,C  11,H  26)          108.4309         0.323468   
     77. A(C  13,C  11,H  25)          109.0851         0.322603   
     78. A(H  25,C  11,H  26)          107.4823         0.290353   
     79. A(C  10,C  11,H  25)          109.5035         0.323468   
     80. A(C  10,C  11,C  13)          112.1708         0.361023   
     81. A(O   1,C  12,N   4)          126.4370         0.472512   
     82. A(N   4,C  12,N   5)          107.7358         0.429646   
     83. A(O   1,C  12,N   5)          125.8253         0.471066   
     84. A(H  27,C  13,H  28)          107.5766         0.290483   
     85. A(C  11,C  13,H  28)          109.6346         0.322631   
     86. A(C  14,C  13,H  27)          107.6423         0.322151   
     87. A(C  11,C  13,H  27)          110.0447         0.322727   
     88. A(C  14,C  13,H  28)          108.9144         0.322056   
     89. A(C  11,C  13,C  14)          112.8711         0.359352   
     90. A(H  29,C  14,H  30)          109.9788         0.290943   
     91. A(C  15,C  14,H  30)          108.4807         0.328431   
     92. A(C  13,C  14,H  30)          109.6649         0.322267   
     93. A(C  15,C  14,H  29)          109.7382         0.328642   
     94. A(C  13,C  14,H  29)          109.6459         0.322472   
     95. A(C  13,C  14,C  15)          109.3121         0.365813   
     96. A(O   3,C  15,C  14)          122.4833         0.440538   
     97. A(O   2,C  15,C  14)          113.4005         0.412108   
     98. A(O   2,C  15,O   3)          124.0297         0.488765   
     99. D(H  16,C   6,N   4,C  12)   -133.8274         0.019259   
    100. D(C   7,C   6,N   4,C  12)    -15.1595         0.019259   
    101. D(C   8,C   6,N   4,H  23)    -51.2030         0.019259   
    102. D(C   8,C   6,N   4,C  12)    103.2439         0.019259   
    103. D(C   7,C   6,N   4,H  23)   -169.6064         0.019259   
    104. D(C   6,C   7,N   5,H  24)   -176.5478         0.018590   
    105. D(C   6,C   7,N   5,C  12)     -6.8474         0.018590   
    106. D(N   5,C   7,C   6,H  16)    130.8020         0.009437   
    107. D(N   5,C   7,C   6,N   4)     12.5278         0.009437   
    108. D(C   9,C   7,C   6,H  16)   -109.4624         0.009437   
    109. D(C   9,C   7,N   5,C  12)   -124.3105         0.018590   
    110. D(N   5,C   7,C   6,C   8)   -109.8037         0.009437   
    111. D(C   9,C   7,C   6,C   8)      9.9318         0.009437   
    112. D(C   9,C   7,C   6,N   4)    132.2633         0.009437   
    113. D(H  17,C   7,N   5,C  12)    111.6438         0.018590   
    114. D(C   9,C   7,N   5,H  24)     65.9890         0.018590   
    115. D(C  10,C   8,C   6,H  16)   -153.4346         0.009740   
    116. D(C  10,C   8,C   6,C   7)     85.4432         0.009740   
    117. D(S   0,C   8,C   6,H  16)     84.5783         0.009740   
    118. D(S   0,C   8,C   6,C   7)    -36.5438         0.009740   
    119. D(C  10,C   8,C   6,N   4)    -29.3067         0.009740   
    120. D(H  18,C   8,S   0,C   9)    158.7603         0.003363   
    121. D(S   0,C   8,C   6,N   4)   -151.2938         0.009740   
    122. D(C   6,C   8,S   0,C   9)     43.0546         0.003363   
    123. D(C  10,C   8,S   0,C   9)    -81.3690         0.003363   
    124. D(S   0,C   9,C   7,C   6)     21.6533         0.010985   
    125. D(S   0,C   9,C   7,N   5)    134.6894         0.010985   
    126. D(H  20,C   9,S   0,C   8)     80.7842         0.003473   
    127. D(C   7,C   9,S   0,C   8)    -38.2742         0.003473   
    128. D(S   0,C   9,C   7,H  17)   -100.5497         0.010985   
    129. D(H  19,C   9,S   0,C   8)   -160.1879         0.003473   
    130. D(H  19,C   9,C   7,H  17)     18.2546         0.010985   
    131. D(H  19,C   9,C   7,C   6)    140.4577         0.010985   
    132. D(H  19,C   9,C   7,N   5)   -106.5063         0.010985   
    133. D(H  21,C  10,C   8,H  18)    110.8292         0.010817   
    134. D(H  21,C  10,C   8,C   6)   -123.8628         0.010817   
    135. D(H  21,C  10,C   8,S   0)     -6.7897         0.010817   
    136. D(C  11,C  10,C   8,H  18)     -9.6925         0.010817   
    137. D(C  11,C  10,C   8,C   6)    115.6155         0.010817   
    138. D(C  11,C  10,C   8,S   0)   -127.3114         0.010817   
    139. D(H  25,C  11,C  10,H  22)     77.5075         0.010922   
    140. D(H  25,C  11,C  10,H  21)   -165.9228         0.010922   
    141. D(H  25,C  11,C  10,C   8)    -44.9526         0.010922   
    142. D(C  13,C  11,C  10,H  22)    -43.7511         0.010922   
    143. D(C  13,C  11,C  10,H  21)     72.8186         0.010922   
    144. D(C  13,C  11,C  10,C   8)   -166.2112         0.010922   
    145. D(N   4,C  12,N   5,H  24)    167.6389         0.031105   
    146. D(N   4,C  12,N   5,C   7)     -2.1671         0.031105   
    147. D(O   1,C  12,N   5,H  24)    -12.8380         0.031105   
    148. D(O   1,C  12,N   5,C   7)    177.3560         0.031105   
    149. D(N   5,C  12,N   4,H  23)    166.8310         0.032247   
    150. D(N   5,C  12,N   4,C   6)     11.5010         0.032247   
    151. D(O   1,C  12,N   4,H  23)    -12.6884         0.032247   
    152. D(O   1,C  12,N   4,C   6)   -168.0184         0.032247   
    153. D(H  27,C  13,C  11,H  26)    -15.8357         0.010594   
    154. D(H  27,C  13,C  11,H  25)    101.8554         0.010594   
    155. D(H  27,C  13,C  11,C  10)   -136.6459         0.010594   
    156. D(C  14,C  13,C  11,H  26)   -136.1037         0.010594   
    157. D(C  14,C  13,C  11,H  25)    -18.4126         0.010594   
    158. D(C  14,C  13,C  11,C  10)    103.0861         0.010594   
    159. D(C  15,C  14,C  13,H  28)     71.6421         0.010381   
    160. D(C  15,C  14,C  13,H  27)   -172.0019         0.010381   
    161. D(C  15,C  14,C  13,C  11)    -50.3666         0.010381   
    162. D(H  29,C  14,C  13,H  28)    -48.6944         0.010381   
    163. D(H  29,C  14,C  13,H  27)     67.6616         0.010381   
    164. D(H  29,C  14,C  13,C  11)   -170.7031         0.010381   
    165. D(O   3,C  15,C  14,H  29)   -147.1001         0.012081   
    166. D(O   3,C  15,C  14,C  13)     92.6199         0.012081   
    167. D(O   2,C  15,C  14,H  30)    156.3319         0.012081   
    168. D(O   2,C  15,C  14,H  29)     36.1560         0.012081   
    169. D(O   2,C  15,C  14,C  13)    -84.1240         0.012081   
    170. D(C  14,C  15,O   2,H  31)    168.7083         0.041318   
    171. D(O   3,C  15,O   2,H  31)     -7.9774         0.041318   
    -----------------------------------------------------------------

Number of atoms                         .... 32
Number of degrees of freedom            .... 171


         *************************************************************
         *                GEOMETRY OPTIMIZATION CYCLE   1            *
         *************************************************************
---------------------------------
CARTESIAN COORDINATES (ANGSTROEM)
---------------------------------
  S     -0.706465   -2.172097    3.825344
  O      4.395430   -0.199546    4.738357
  O      4.548576    0.627702    2.211613
  O      4.590966   -1.545823    1.704339
  N      3.218124   -2.052875    4.047896
  N      2.389274   -0.826624    5.671100
  C      1.882666   -2.556814    4.193796
  C      1.381964   -1.836501    5.477008
  C      0.928905   -2.223612    3.018685
  C     -0.008217   -1.244886    5.222783
  C      1.235847   -0.919632    2.270675
  C      1.640878   -1.160326    0.811974
  C      3.438073   -0.951683    4.810910
  C      2.267269    0.088353    0.170203
  C      3.801115   -0.000358    0.060621
  C      4.375314   -0.391612    1.400071
  H      1.894256   -3.643126    4.330084
  H      1.344277   -2.529220    6.327109
  H      0.894250   -3.056289    2.315668
  H     -0.678713   -1.347985    6.071682
  H      0.066538   -0.193711    4.940651
  H      0.349823   -0.280675    2.282659
  H      2.030210   -0.376286    2.785052
  H      3.778419   -2.208994    3.214067
  H      2.403097   -0.200101    6.454753
  H      2.356034   -1.983407    0.763429
  H      0.753745   -1.463376    0.253024
  H      1.871545    0.229821   -0.836411
  H      2.004875    0.971833    0.754640
  H      4.202915    0.965063   -0.244004
  H      4.073296   -0.763913   -0.668406
  H      4.755862    0.343588    3.147601

----------------------------
CARTESIAN COORDINATES (A.U.)
----------------------------
  NO LB      ZA    FRAG     MASS         X           Y           Z
   0 S    16.0000    0    32.060   -1.335026   -4.104669    7.228853
   1 O     8.0000    0    15.999    8.306159   -0.377087    8.954197
   2 O     8.0000    0    15.999    8.595563    1.186184    4.179342
   3 O     8.0000    0    15.999    8.675669   -2.921182    3.220735
   4 N     7.0000    0    14.007    6.081373   -3.879372    7.649414
   5 N     7.0000    0    14.007    4.515073   -1.562094   10.716827
   6 C     6.0000    0    12.011    3.557724   -4.831677    7.925126
   7 C     6.0000    0    12.011    2.611533   -3.470484   10.350045
   8 C     6.0000    0    12.011    1.755375   -4.202017    5.704487
   9 C     6.0000    0    12.011   -0.015527   -2.352493    9.869629
  10 C     6.0000    0    12.011    2.335412   -1.737853    4.290954
  11 C     6.0000    0    12.011    3.100809   -2.192699    1.534409
  12 C     6.0000    0    12.011    6.497017   -1.798420    9.091302
  13 C     6.0000    0    12.011    4.284518    0.166963    0.321637
  14 C     6.0000    0    12.011    7.183067   -0.000676    0.114557
  15 C     6.0000    0    12.011    8.268145   -0.740039    2.645750
  16 H     1.0000    0     1.008    3.579625   -6.884510    8.182672
  17 H     1.0000    0     1.008    2.540315   -4.779532   11.956503
  18 H     1.0000    0     1.008    1.689888   -5.775549    4.375978
  19 H     1.0000    0     1.008   -1.282582   -2.547323   11.473815
  20 H     1.0000    0     1.008    0.125739   -0.366061    9.336478
  21 H     1.0000    0     1.008    0.661070   -0.530400    4.313601
  22 H     1.0000    0     1.008    3.836542   -0.711078    5.262985
  23 H     1.0000    0     1.008    7.140178   -4.174393    6.073706
  24 H     1.0000    0     1.008    4.541196   -0.378136   12.197715
  25 H     1.0000    0     1.008    4.452259   -3.748096    1.442671
  26 H     1.0000    0     1.008    1.424371   -2.765379    0.478147
  27 H     1.0000    0     1.008    3.536707    0.434299   -1.580589
  28 H     1.0000    0     1.008    3.788665    1.836499    1.426062
  29 H     1.0000    0     1.008    7.942358    1.823705   -0.461102
  30 H     1.0000    0     1.008    7.697413   -1.443586   -1.263104
  31 H     1.0000    0     1.008    8.987277    0.649287    5.948104

--------------------------------
INTERNAL COORDINATES (ANGSTROEM)
--------------------------------
 S      0   0   0     0.000000000000     0.00000000     0.00000000
 O      1   0   0     5.545618670500     0.00000000     0.00000000
 O      2   1   0     2.663123936287    90.41190638     0.00000000
 O      3   2   1     2.232337857172    85.08067054   291.53141025
 N      2   1   3     2.301654967249    36.25652817   271.05417877
 N      5   2   1     2.196696930428    61.43469571   322.57498909
 C      5   2   1     1.434812819031   136.75159966   338.53856932
 C      6   5   2     1.439512510266    76.86661679   177.71690003
 C      7   5   2     1.549700751230   114.84772943    95.82246147
 C      8   6   5     1.532070397136   112.73201435   234.37970836
 C      9   7   5     1.534305599080   115.42261206   330.69325718
 C     11   9   7     1.532903234287   112.54045499   115.61548725
 C      2   1   3     1.219633405052    21.29734127   217.93818187
 C     12  11   9     1.537347421800   112.17082204   193.78881349
 C     14  12  11     1.540312185043   112.87110768   103.08605473
 C      4   3   2     1.212967061064    29.20676866   157.30109976
 H      7   5   2     1.094889681597   110.56538902   218.75116345
 H      8   6   5     1.097247195624   111.25206362   110.33407104
 H      9   7   5     1.090314063935   110.13817205    95.90010439
 H     10   8   6     1.086657259948   113.17962636   253.49369758
 H     10   8   6     1.090942279153   110.65952640    16.98145735
 H     11   9   7     1.092450331088   109.23741018   236.13718902
 H     11   9   7     1.091247889677   109.81550341   353.31330685
 H      5   2   1     1.016649030576    95.03647247   131.21510596
 H      6   5   2     1.003410930658   156.99185859   332.31438462
 H     12  11   9     1.091451789134   109.50345017   315.04739221
 H     12  11   9     1.091452288690   108.43094252    72.04566139
 H     14  12  11     1.090818166617   110.04469408   223.35412732
 H     14  12  11     1.091308091033   109.63458403   341.48344738
 H     15  14  12     1.089163275810   109.64588786   189.29689537
 H     15  14  12     1.090219301815   109.66485498    68.44420653
 H      3   2   1     0.999880940482    15.31143212   198.30020484

---------------------------
INTERNAL COORDINATES (A.U.)
---------------------------
 S      0   0   0     0.000000000000     0.00000000     0.00000000
 O      1   0   0    10.479700530405     0.00000000     0.00000000
 O      2   1   0     5.032574900272    90.41190638     0.00000000
 O      3   2   1     4.218507188440    85.08067054   291.53141025
 N      2   1   3     4.349497542879    36.25652817   271.05417877
 N      5   2   1     4.151155597734    61.43469571   322.57498909
 C      5   2   1     2.711403281409   136.75159966   338.53856932
 C      6   5   2     2.720284410757    76.86661679   177.71690003
 C      7   5   2     2.928510009357   114.84772943    95.82246147
 C      8   6   5     2.895193468475   112.73201435   234.37970836
 C      9   7   5     2.899417388003   115.42261206   330.69325718
 C     11   9   7     2.896767302605   112.54045499   115.61548725
 C      2   1   3     2.304773119330    21.29734127   217.93818187
 C     12  11   9     2.905165599892   112.17082204   193.78881349
 C     14  12  11     2.910768190474   112.87110768   103.08605473
 C      4   3   2     2.292175554878    29.20676866   157.30109976
 H      7   5   2     2.069041645075   110.56538902   218.75116345
 H      8   6   5     2.073496700942   111.25206362   110.33407104
 H      9   7   5     2.060394980801   110.13817205    95.90010439
 H     10   8   6     2.053484622739   113.17962636   253.49369758
 H     10   8   6     2.061582135516   110.65952640    16.98145735
 H     11   9   7     2.064431940668   109.23741018   236.13718902
 H     11   9   7     2.062159655709   109.81550341   353.31330685
 H      5   2   1     1.921188242105    95.03647247   131.21510596
 H      6   5   2     1.896171858727   156.99185859   332.31438462
 H     12  11   9     2.062544969842   109.50345017   315.04739221
 H     12  11   9     2.062545913866   108.43094252    72.04566139
 H     14  12  11     2.061347596813   110.04469408   223.35412732
 H     14  12  11     2.062273419785   109.63458403   341.48344738
 H     15  14  12     2.058220306406   109.64588786   189.29689537
 H     15  14  12     2.060215906346   109.66485498    68.44420653
 H      3   2   1     1.889501144038    15.31143212   198.30020484

---------------------
BASIS SET INFORMATION
---------------------
There are 5 groups of distinct atoms

 Group   1 Type S   : 14s9p1d contracted to 5s4p1d pattern {73211/6111/1}
 Group   2 Type O   : 11s6p2d contracted to 5s3p2d pattern {62111/411/11}
 Group   3 Type N   : 11s6p1d contracted to 5s3p1d pattern {62111/411/1}
 Group   4 Type C   : 11s6p1d contracted to 5s3p1d pattern {62111/411/1}
 Group   5 Type H   : 5s contracted to 3s pattern {311}

Atom   0S    basis set group =>   1
Atom   1O    basis set group =>   2
Atom   2O    basis set group =>   2
Atom   3O    basis set group =>   2
Atom   4N    basis set group =>   3
Atom   5N    basis set group =>   3
Atom   6C    basis set group =>   4
Atom   7C    basis set group =>   4
Atom   8C    basis set group =>   4
Atom   9C    basis set group =>   4
Atom  10C    basis set group =>   4
Atom  11C    basis set group =>   4
Atom  12C    basis set group =>   4
Atom  13C    basis set group =>   4
Atom  14C    basis set group =>   4
Atom  15C    basis set group =>   4
Atom  16H    basis set group =>   5
Atom  17H    basis set group =>   5
Atom  18H    basis set group =>   5
Atom  19H    basis set group =>   5
Atom  20H    basis set group =>   5
Atom  21H    basis set group =>   5
Atom  22H    basis set group =>   5
Atom  23H    basis set group =>   5
Atom  24H    basis set group =>   5
Atom  25H    basis set group =>   5
Atom  26H    basis set group =>   5
Atom  27H    basis set group =>   5
Atom  28H    basis set group =>   5
Atom  29H    basis set group =>   5
Atom  30H    basis set group =>   5
Atom  31H    basis set group =>   5
---------------------------------
AUXILIARY/J BASIS SET INFORMATION
---------------------------------
There are 5 groups of distinct atoms

 Group   1 Type S   : 14s5p5d2f1g contracted to 8s4p3d1f1g pattern {71111111/2111/311/2/1}
 Group   2 Type O   : 8s3p3d contracted to 6s3p3d pattern {311111/111/111}
 Group   3 Type N   : 8s3p3d contracted to 6s3p3d pattern {311111/111/111}
 Group   4 Type C   : 8s3p3d contracted to 6s3p3d pattern {311111/111/111}
 Group   5 Type H   : 5s2p contracted to 3s1p pattern {311/2}

Atom   0S    basis set group =>   1
Atom   1O    basis set group =>   2
Atom   2O    basis set group =>   2
Atom   3O    basis set group =>   2
Atom   4N    basis set group =>   3
Atom   5N    basis set group =>   3
Atom   6C    basis set group =>   4
Atom   7C    basis set group =>   4
Atom   8C    basis set group =>   4
Atom   9C    basis set group =>   4
Atom  10C    basis set group =>   4
Atom  11C    basis set group =>   4
Atom  12C    basis set group =>   4
Atom  13C    basis set group =>   4
Atom  14C    basis set group =>   4
Atom  15C    basis set group =>   4
Atom  16H    basis set group =>   5
Atom  17H    basis set group =>   5
Atom  18H    basis set group =>   5
Atom  19H    basis set group =>   5
Atom  20H    basis set group =>   5
Atom  21H    basis set group =>   5
Atom  22H    basis set group =>   5
Atom  23H    basis set group =>   5
Atom  24H    basis set group =>   5
Atom  25H    basis set group =>   5
Atom  26H    basis set group =>   5
Atom  27H    basis set group =>   5
Atom  28H    basis set group =>   5
Atom  29H    basis set group =>   5
Atom  30H    basis set group =>   5
Atom  31H    basis set group =>   5


           ************************************************************
           *        Program running with 16 parallel MPI-processes    *
           *              working on a common directory               *
           ************************************************************
------------------------------------------------------------------------------
                             ORCA STARTUP CALCULATIONS
                           -- RI-GTO INTEGRALS CHOSEN --
------------------------------------------------------------------------------
------------------------------------------------------------------------------
                   ___                                                        
                  /   \      - P O W E R E D   B Y -                         
                 /     \                                                     
                 |  |  |   _    _      __       _____    __    __             
                 |  |  |  | |  | |    /  \     |  _  \  |  |  /  |          
                  \  \/   | |  | |   /    \    | | | |  |  | /  /          
                 / \  \   | |__| |  /  /\  \   | |_| |  |  |/  /          
                |  |  |   |  __  | /  /__\  \  |    /   |      \           
                |  |  |   | |  | | |   __   |  |    \   |  |\   \          
                \     /   | |  | | |  |  |  |  | |\  \  |  | \   \       
                 \___/    |_|  |_| |__|  |__|  |_| \__\ |__|  \__/        
                                                                              
                      - O R C A' S   B I G   F R I E N D -                    
                                      &                                       
                       - I N T E G R A L  F E E D E R -                       
                                                                              
 v1 FN, 2020, v2 2021, v3 2022-2024                                           
------------------------------------------------------------------------------


----------------------
SHARK INTEGRAL PACKAGE
----------------------

Number of atoms                             ...     32
Number of basis functions                   ...    370
Number of shells                            ...    196
Maximum angular momentum                    ...      2
Integral batch strategy                     ... SHARK/LIBINT Hybrid
RI-J (if used) integral strategy            ... SPLIT-RIJ (Revised 2003 algorithm where possible)
Printlevel                                  ...      1
Contraction scheme used                     ... SEGMENTED contraction
Prescreening option                         ... SCHWARTZ
   Thresh                                   ... 2.500e-11
   Tcut                                     ... 2.500e-12
   Tpresel                                  ... 2.500e-12 
Coulomb Range Separation                    ... NOT USED
Exchange Range Separation                   ... NOT USED
Multipole approximations                    ... NOT USED
Finite Nucleus Model                        ... NOT USED
CABS basis                                  ... NOT available
Auxiliary Coulomb fitting basis             ... AVAILABLE
   # of basis functions in Aux-J            ...    597
   # of shells in Aux-J                     ...    261
   Maximum angular momentum in Aux-J        ...      4
Auxiliary J/K fitting basis                 ... NOT available
Auxiliary Correlation fitting basis         ... NOT available
Auxiliary 'external' fitting basis          ... NOT available

Checking pre-screening integrals            ... done (  0.0 sec) Dimension = 196
Check shell pair data                       ... done (  0.0 sec)
Shell pair information
Shell pair cut-off parameter TPreSel        ...   2.5e-12
Total number of shell pairs                 ...     19306
Shell pairs after pre-screening             ...     16259
Total number of primitive shell pairs       ...     71671
Primitive shell pairs kept                  ...     39401
          la=0 lb=0:   6595 shell pairs
          la=1 lb=0:   5512 shell pairs
          la=1 lb=1:   1156 shell pairs
          la=2 lb=0:   1987 shell pairs
          la=2 lb=1:    841 shell pairs
          la=2 lb=2:    168 shell pairs

Calculating one electron integrals          ... done (  0.0 sec)
Calculating RI/J V-Matrix + Cholesky decomp.... done (  0.0 sec)
Calculating Nuclear repulsion               ... done (  0.0 sec) ENN=   1364.190620078045 Eh

Diagonalization of the overlap matrix:
Smallest eigenvalue                        ... 4.240e-05
Time for diagonalization                   ...    0.011 sec
Threshold for overlap eigenvalues          ... 1.000e-07
Number of eigenvalues below threshold      ... 0
Time for construction of square roots      ...    0.006 sec
Total time needed                          ...    0.018 sec

-------------------
DFT GRID GENERATION
-------------------

General Integration Accuracy     IntAcc      ... 4.959
Radial Grid Type                 RadialGrid  ... OptM3 with GC (2021)
Angular Grid (max. ang.)         AngularGrid ... 6 (Lebedev-590)
Angular grid pruning method      GridPruning ... 4 (adaptive)
Weight generation scheme         WeightScheme... mBecke (2022)
Basis function cutoff            BFCut       ... 1.0000e-11
Integration weight cutoff        WCut        ... 1.0000e-14
Partially contracted basis set               ... off
Rotationally invariant grid construction     ... off
Angular grids for H and He will be reduced by one unit
Diffuse basis detected: some atoms will have their outermost
                        angular grid increased by 1.

Total number of grid points                  ...   364630
Total number of batches                      ...     5715
Average number of points per batch           ...       63
Average number of grid points per atom       ...    11395
Initializing property integral containers    ... done (  0.0 sec)

SHARK setup successfully completed in   2.6 seconds

Maximum memory used throughout the entire STARTUP-calculation: 85.7 MB


           ************************************************************
           *        Program running with 16 parallel MPI-processes    *
           *              working on a common directory               *
           ************************************************************
-------------------------------------------------------------------------------
                                 ORCA GUESS
                   Start orbitals & Density for SCF / CASSCF
-------------------------------------------------------------------------------

------------
SCF SETTINGS
------------
Hamiltonian:
 Density Functional     Method          .... DFT(GTOs)
 Exchange Functional    Exchange        .... B973C
 Correlation Functional Correlation     .... B973C
 Gradients option       PostSCFGGA      .... off
 RI-approximation to the Coulomb term is turned on
   Number of AuxJ basis functions       .... 597


General Settings:
 Integral files         IntName         .... m1_00_Vitamin_B7-GFN2_000-B97-3C-TZ
 Hartree-Fock type      HFTyp           .... RHF
 Total Charge           Charge          ....    0
 Multiplicity           Mult            ....    1
 Number of Electrons    NEL             ....  130
 Basis Dimension        Dim             ....  370
 Nuclear Repulsion      ENuc            ....   1364.1906200780 Eh

Convergence Acceleration:
 AO-DIIS                CNVDIIS         .... on
   Start iteration      DIISMaxIt       ....    12
   Startup error        DIISStart       ....  0.200000
   # of expansion vecs  DIISMaxEq       ....     5
   Bias factor          DIISBfac        ....   1.050
   Max. coefficient     DIISMaxC        ....  10.000
 MO-DIIS                CNVKDIIS        .... off
 Trust-Rad. Augm. Hess. CNVTRAH         .... off
 SOSCF                  CNVSOSCF        .... on
   Start iteration      SOSCFMaxIt      ....   150
   Startup grad/error   SOSCFStart      ....  0.003300
   Hessian update       SOSCFHessUp     .... L-BFGS
 Level Shifting         CNVShift        .... on
   Level shift para.    LevelShift      ....    0.2500
   Turn off err/grad.   ShiftErr        ....    0.0010
 Zerner damping         CNVZerner       .... off
 Static damping         CNVDamp         .... on
   Fraction old density DampFac         ....    0.7000
   Max. Damping (<1)    DampMax         ....    0.9800
   Min. Damping (>=0)   DampMin         ....    0.0000
   Turn off err/grad.   DampErr         ....    0.1000

SCF Procedure:
 Maximum # iterations   MaxIter         ....   800
 SCF integral mode      SCFMode         .... Direct
   Integral package                     .... SHARK and LIBINT hybrid scheme
 Reset frequency        DirectResetFreq ....    20
 Integral Threshold     Thresh          ....  2.500e-11 Eh
 Primitive CutOff       TCut            ....  2.500e-12 Eh

Convergence Tolerance:
 Convergence Check Mode ConvCheckMode   .... Total+1el-Energy
 Convergence forced     ConvForced      .... 0
 Energy Change          TolE            ....  1.000e-08 Eh
 1-El. energy change                    ....  1.000e-05 Eh
 Orbital Gradient       TolG            ....  1.000e-05
 Orbital Rotation angle TolX            ....  1.000e-05
 DIIS Error             TolErr          ....  5.000e-07

--------------------------------
INITIAL GUESS: MINIMAL BASIS EHT
--------------------------------
The minimal basis has 100 functions
EHT matrix was diagonalized
Basis set overlap was calculated now projecting the orbitals
Using GuessMode=FMatrix for the initial guess
C*T matrix was formed
Effective Fockian was calculated
Effective Fockian was diagonalized
Initial density was built
                      ------------------
                      INITIAL GUESS DONE
                      ------------------
             **** ENERGY FILE WAS UPDATED (m1_00_Vitamin_B7-GFN2_000-B97-3C-TZ.en.tmp) ****
Finished Guess after   0.2 sec
Maximum memory used throughout the entire GUESS-calculation: 29.6 MB


           ************************************************************
           *        Program running with 16 parallel MPI-processes    *
           *              working on a common directory               *
           ************************************************************

-------------------------------------------------------------------------------------------
                                      ORCA LEAN-SCF
                              memory conserving SCF solver
-------------------------------------------------------------------------------------------

----------------------------------------D-I-I-S--------------------------------------------
Iteration    Energy (Eh)           Delta-E    RMSDP     MaxDP     DIISErr   Damp  Time(sec)
-------------------------------------------------------------------------------------------
               ***  Starting incremental Fock matrix formation  ***
    1    -1120.9201439303285497     0.00e+00  5.28e-03  1.54e-01  8.29e-01  0.700   0.5
    2    -1121.8775374965418905    -9.57e-01  3.88e-03  9.98e-02  5.55e-01  0.700   0.5
    3    -1122.3651962578858274    -4.88e-01  2.65e-03  7.89e-02  3.70e-01  0.700   0.5
    4    -1122.7245206801719632    -3.59e-01  1.91e-03  6.81e-02  2.49e-01  0.700   0.5
                               ***Turning on AO-DIIS***
    5    -1122.9778914302421526    -2.53e-01  1.40e-03  6.31e-02  1.68e-01  0.700   0.5
    6    -1123.1530610578354299    -1.75e-01  1.00e-03  4.06e-02  1.20e-01  0.700   0.5
    7    -1123.2765342804411830    -1.23e-01  7.33e-04  2.46e-02  8.49e-02  0.700   0.5
    8    -1123.3630537562551126    -8.65e-02  1.68e-03  5.80e-02  5.93e-02  0.000   0.5
    9    -1123.5650269222830957    -2.02e-01  1.47e-04  5.34e-03  8.99e-03  0.000   0.5
   10    -1123.5652124171385822    -1.85e-04  4.24e-05  1.87e-03  6.31e-03  0.000   0.5
                              *** Initializing SOSCF ***
---------------------------------------S-O-S-C-F--------------------------------------
Iteration    Energy (Eh)           Delta-E    RMSDP     MaxDP     MaxGrad    Time(sec)
--------------------------------------------------------------------------------------
   11    -1123.5653043793738561    -9.20e-05  2.17e-05  1.29e-03  9.56e-04     0.5
               *** Restarting incremental Fock matrix formation ***
   12    -1123.5653121352340804    -7.76e-06  1.91e-05  9.35e-04  1.55e-04     0.5
   13    -1123.5653103596134770     1.78e-06  9.05e-06  3.54e-04  4.46e-04     0.4
   14    -1123.5653125417036335    -2.18e-06  7.89e-06  2.87e-04  4.83e-05     0.4
   15    -1123.5653124165230565     1.25e-07  4.44e-06  1.60e-04  5.53e-05     0.4
   16    -1123.5653125969658959    -1.80e-07  5.90e-06  5.09e-04  1.19e-05     0.4
   17    -1123.5653125777087098     1.93e-08  1.78e-06  8.62e-05  2.46e-05     0.4
   18    -1123.5653125948740580    -1.72e-08  1.95e-06  1.14e-04  4.97e-06     0.4
   19    -1123.5653125911724146     3.70e-09  8.19e-07  5.54e-05  7.60e-06     0.4
                 **** Energy Check signals convergence ****

               *****************************************************
               *                     SUCCESS                       *
               *           SCF CONVERGED AFTER  19 CYCLES          *
               *****************************************************

             **** ENERGY FILE WAS UPDATED (m1_00_Vitamin_B7-GFN2_000-B97-3C-TZ.en.tmp) ****

----------------
TOTAL SCF ENERGY
----------------

Total Energy       :      -1123.56531259117241 Eh          -30573.76650 eV

Components:
Nuclear Repulsion  :       1364.19062007804473 Eh           37121.51399 eV
Electronic Energy  :      -2487.75593266921715 Eh          -67695.28049 eV
One Electron Energy:      -4250.62825081706978 Eh         -115665.47502 eV
Two Electron Energy:       1762.87231814785287 Eh           47970.19453 eV

Virial components:
Potential Energy   :      -2243.93664662851461 Eh          -61060.62042 eV
Kinetic Energy     :       1120.37133403734197 Eh           30486.85392 eV
Virial Ratio       :          2.00285082138109

DFT components:
N(Alpha)           :       64.999971977519 electrons
N(Beta)            :       64.999971977519 electrons
N(Total)           :      129.999943955037 electrons
E(XC)              :     -125.135130041100 Eh       

---------------
SCF CONVERGENCE
---------------

  Last Energy change         ...   -3.7016e-09  Tolerance :   1.0000e-08
  Last MAX-Density change    ...    5.5353e-05  Tolerance :   1.0000e-07
  Last RMS-Density change    ...    8.1873e-07  Tolerance :   5.0000e-09
  Last DIIS Error            ...    9.5643e-04  Tolerance :   5.0000e-07
  Last Orbital Gradient      ...    7.5966e-06  Tolerance :   1.0000e-05
  Last Orbital Rotation      ...    9.4221e-06  Tolerance :   1.0000e-05


----------------
ORBITAL ENERGIES
----------------

  NO   OCC          E(Eh)            E(eV) 
   0   2.0000     -88.022961     -2395.2265 
   1   2.0000     -18.774515      -510.8805 
   2   2.0000     -18.726184      -509.5654 
   3   2.0000     -18.715493      -509.2744 
   4   2.0000     -14.018595      -381.4654 
   5   2.0000     -14.004525      -381.0825 
   6   2.0000     -10.011690      -272.4319 
   7   2.0000     -10.011226      -272.4193 
   8   2.0000      -9.957554      -270.9588 
   9   2.0000      -9.952914      -270.8326 
  10   2.0000      -9.935042      -270.3462 
  11   2.0000      -9.932352      -270.2730 
  12   2.0000      -9.901683      -269.4385 
  13   2.0000      -9.900344      -269.4021 
  14   2.0000      -9.895018      -269.2571 
  15   2.0000      -9.892068      -269.1769 
  16   2.0000      -7.714273      -209.9160 
  17   2.0000      -5.746086      -156.3589 
  18   2.0000      -5.741521      -156.2347 
  19   2.0000      -5.732360      -155.9854 
  20   2.0000      -1.018838       -27.7240 
  21   2.0000      -0.983936       -26.7743 
  22   2.0000      -0.932196       -25.3663 
  23   2.0000      -0.906362       -24.6634 
  24   2.0000      -0.830394       -22.5962 
  25   2.0000      -0.783566       -21.3219 
  26   2.0000      -0.745983       -20.2992 
  27   2.0000      -0.704428       -19.1685 
  28   2.0000      -0.666283       -18.1305 
  29   2.0000      -0.662069       -18.0158 
  30   2.0000      -0.608239       -16.5510 
  31   2.0000      -0.590073       -16.0567 
  32   2.0000      -0.563879       -15.3439 
  33   2.0000      -0.551100       -14.9962 
  34   2.0000      -0.532573       -14.4920 
  35   2.0000      -0.524939       -14.2843 
  36   2.0000      -0.487436       -13.2638 
  37   2.0000      -0.470722       -12.8090 
  38   2.0000      -0.462039       -12.5727 
  39   2.0000      -0.451066       -12.2741 
  40   2.0000      -0.430834       -11.7236 
  41   2.0000      -0.424535       -11.5522 
  42   2.0000      -0.418073       -11.3763 
  43   2.0000      -0.410338       -11.1659 
  44   2.0000      -0.400263       -10.8917 
  45   2.0000      -0.390826       -10.6349 
  46   2.0000      -0.386641       -10.5210 
  47   2.0000      -0.378241       -10.2925 
  48   2.0000      -0.366650        -9.9771 
  49   2.0000      -0.358492        -9.7551 
  50   2.0000      -0.351076        -9.5533 
  51   2.0000      -0.348069        -9.4714 
  52   2.0000      -0.331204        -9.0125 
  53   2.0000      -0.322095        -8.7646 
  54   2.0000      -0.315644        -8.5891 
  55   2.0000      -0.306109        -8.3296 
  56   2.0000      -0.302383        -8.2283 
  57   2.0000      -0.293999        -8.0001 
  58   2.0000      -0.286126        -7.7859 
  59   2.0000      -0.273765        -7.4495 
  60   2.0000      -0.239649        -6.5212 
  61   2.0000      -0.234935        -6.3929 
  62   2.0000      -0.226142        -6.1536 
  63   2.0000      -0.216624        -5.8946 
  64   2.0000      -0.195889        -5.3304 
  65   0.0000      -0.027952        -0.7606 
  66   0.0000      -0.013804        -0.3756 
  67   0.0000       0.008095         0.2203 
  68   0.0000       0.012436         0.3384 
  69   0.0000       0.023004         0.6260 
  70   0.0000       0.036354         0.9892 
  71   0.0000       0.040813         1.1106 
  72   0.0000       0.044803         1.2192 
  73   0.0000       0.059597         1.6217 
  74   0.0000       0.065815         1.7909 
  75   0.0000       0.068154         1.8546 
*Only the first 10 virtual orbitals were printed.

                    ********************************
                    * MULLIKEN POPULATION ANALYSIS *
                    ********************************

-----------------------
MULLIKEN ATOMIC CHARGES
-----------------------
   0 S :   -0.012186
   1 O :   -0.522399
   2 O :   -0.458382
   3 O :   -0.469426
   4 N :   -0.310203
   5 N :   -0.392701
   6 C :   -0.268077
   7 C :   -0.050101
   8 C :   -0.056925
   9 C :   -0.400902
  10 C :   -0.499972
  11 C :   -0.300395
  12 C :    0.324823
  13 C :   -0.317534
  14 C :   -0.349995
  15 C :    0.389651
  16 H :    0.192674
  17 H :    0.182184
  18 H :    0.233889
  19 H :    0.212141
  20 H :    0.200455
  21 H :    0.195539
  22 H :    0.235041
  23 H :    0.364433
  24 H :    0.354870
  25 H :    0.180262
  26 H :    0.185725
  27 H :    0.181656
  28 H :    0.179258
  29 H :    0.176963
  30 H :    0.189999
  31 H :    0.429636
Sum of atomic charges:    0.0000000

--------------------------------
MULLIKEN REDUCED ORBITAL CHARGES
--------------------------------
  0 S s       :     5.904421  s :     5.904421
      pz      :     3.145256  p :    10.026442
      px      :     3.247396
      py      :     3.633790
      dz2     :     0.013624  d :     0.081323
      dxz     :     0.025129
      dyz     :     0.014559
      dx2y2   :     0.017514
      dxy     :     0.010497

  1 O s       :     3.848276  s :     3.848276
      pz      :     1.682119  p :     4.644025
      px      :     1.438083
      py      :     1.523823
      dz2     :     0.010204  d :     0.030098
      dxz     :     0.000908
      dyz     :     0.001594
      dx2y2   :     0.003106
      dxy     :     0.014285

  2 O s       :     3.752938  s :     3.752938
      pz      :     1.357246  p :     4.675899
      px      :     1.722241
      py      :     1.596412
      dz2     :     0.007033  d :     0.029545
      dxz     :     0.002677
      dyz     :     0.006856
      dx2y2   :     0.009309
      dxy     :     0.003670

  3 O s       :     3.843569  s :     3.843569
      pz      :     1.736222  p :     4.586899
      px      :     1.490965
      py      :     1.359712
      dz2     :     0.009368  d :     0.038958
      dxz     :     0.006663
      dyz     :     0.004082
      dx2y2   :     0.015297
      dxy     :     0.003548

  4 N s       :     3.352757  s :     3.352757
      pz      :     1.395419  p :     3.916396
      px      :     1.197888
      py      :     1.323089
      dz2     :     0.007380  d :     0.041050
      dxz     :     0.009585
      dyz     :     0.006505
      dx2y2   :     0.011433
      dxy     :     0.006146

  5 N s       :     3.327201  s :     3.327201
      pz      :     1.349192  p :     4.025571
      px      :     1.286033
      py      :     1.390346
      dz2     :     0.006335  d :     0.039929
      dxz     :     0.008153
      dyz     :     0.009598
      dx2y2   :     0.008227
      dxy     :     0.007616

  6 C s       :     3.250907  s :     3.250907
      pz      :     0.950656  p :     2.954158
      px      :     0.851897
      py      :     1.151605
      dz2     :     0.012331  d :     0.063011
      dxz     :     0.013346
      dyz     :     0.007882
      dx2y2   :     0.019304
      dxy     :     0.010149

  7 C s       :     3.105553  s :     3.105553
      pz      :     1.105588  p :     2.882107
      px      :     0.879355
      py      :     0.897164
      dz2     :     0.010406  d :     0.062440
      dxz     :     0.009302
      dyz     :     0.013964
      dx2y2   :     0.013496
      dxy     :     0.015273

  8 C s       :     3.005180  s :     3.005180
      pz      :     0.989349  p :     3.003642
      px      :     0.903336
      py      :     1.110957
      dz2     :     0.005800  d :     0.048103
      dxz     :     0.010137
      dyz     :     0.014679
      dx2y2   :     0.010867
      dxy     :     0.006621

  9 C s       :     3.182499  s :     3.182499
      pz      :     1.050051  p :     3.175800
      px      :     1.021302
      py      :     1.104448
      dz2     :     0.007740  d :     0.042602
      dxz     :     0.011300
      dyz     :     0.005340
      dx2y2   :     0.012441
      dxy     :     0.005781

 10 C s       :     3.264079  s :     3.264079
      pz      :     1.032322  p :     3.192286
      px      :     1.146815
      py      :     1.013150
      dz2     :     0.009764  d :     0.043607
      dxz     :     0.007789
      dyz     :     0.009391
      dx2y2   :     0.004546
      dxy     :     0.012117

 11 C s       :     3.164023  s :     3.164023
      pz      :     0.978519  p :     3.092706
      px      :     1.099101
      py      :     1.015086
      dz2     :     0.010456  d :     0.043666
      dxz     :     0.009421
      dyz     :     0.006828
      dx2y2   :     0.005284
      dxy     :     0.011677

 12 C s       :     3.029737  s :     3.029737
      pz      :     0.830148  p :     2.511316
      px      :     0.859813
      py      :     0.821355
      dz2     :     0.018516  d :     0.134123
      dxz     :     0.030720
      dyz     :     0.021407
      dx2y2   :     0.040433
      dxy     :     0.023048

 13 C s       :     3.204898  s :     3.204898
      pz      :     1.110647  p :     3.069130
      px      :     0.947766
      py      :     1.010717
      dz2     :     0.008767  d :     0.043507
      dxz     :     0.007256
      dyz     :     0.008869
      dx2y2   :     0.011104
      dxy     :     0.007511

 14 C s       :     3.178553  s :     3.178553
      pz      :     0.982211  p :     3.128813
      px      :     1.001078
      py      :     1.145525
      dz2     :     0.008034  d :     0.042629
      dxz     :     0.008586
      dyz     :     0.009834
      dx2y2   :     0.008786
      dxy     :     0.007389

 15 C s       :     3.107422  s :     3.107422
      pz      :     0.835176  p :     2.378785
      px      :     0.795862
      py      :     0.747748
      dz2     :     0.021695  d :     0.124142
      dxz     :     0.009770
      dyz     :     0.044063
      dx2y2   :     0.020489
      dxy     :     0.028126

 16 H s       :     0.807326  s :     0.807326

 17 H s       :     0.817816  s :     0.817816

 18 H s       :     0.766111  s :     0.766111

 19 H s       :     0.787859  s :     0.787859

 20 H s       :     0.799545  s :     0.799545

 21 H s       :     0.804461  s :     0.804461

 22 H s       :     0.764959  s :     0.764959

 23 H s       :     0.635567  s :     0.635567

 24 H s       :     0.645130  s :     0.645130

 25 H s       :     0.819738  s :     0.819738

 26 H s       :     0.814275  s :     0.814275

 27 H s       :     0.818344  s :     0.818344

 28 H s       :     0.820742  s :     0.820742

 29 H s       :     0.823037  s :     0.823037

 30 H s       :     0.810001  s :     0.810001

 31 H s       :     0.570364  s :     0.570364



                     *******************************
                     * LOEWDIN POPULATION ANALYSIS *
                     *******************************

----------------------
LOEWDIN ATOMIC CHARGES
----------------------
   0 S :    0.361068
   1 O :   -0.575495
   2 O :   -0.523074
   3 O :   -0.521291
   4 N :   -0.219502
   5 N :   -0.236423
   6 C :   -0.107328
   7 C :   -0.107908
   8 C :   -0.342519
   9 C :   -0.443957
  10 C :   -0.317866
  11 C :   -0.296506
  12 C :    0.271860
  13 C :   -0.271425
  14 C :   -0.222238
  15 C :    0.347159
  16 H :    0.165941
  17 H :    0.161589
  18 H :    0.169976
  19 H :    0.162171
  20 H :    0.158417
  21 H :    0.161458
  22 H :    0.175280
  23 H :    0.334604
  24 H :    0.299119
  25 H :    0.174640
  26 H :    0.156051
  27 H :    0.158482
  28 H :    0.165213
  29 H :    0.180976
  30 H :    0.178135
  31 H :    0.403393

-------------------------------
LOEWDIN REDUCED ORBITAL CHARGES
-------------------------------
  0 S s       :     5.432546  s :     5.432546
      pz      :     3.171793  p :    10.109454
      px      :     3.289741
      py      :     3.647920
      dz2     :     0.016564  d :     0.096932
      dxz     :     0.029750
      dyz     :     0.018315
      dx2y2   :     0.020094
      dxy     :     0.012209

  1 O s       :     3.531215  s :     3.531215
      pz      :     1.638881  p :     4.746582
      px      :     1.528070
      py      :     1.579631
      dz2     :     0.060053  d :     0.297698
      dxz     :     0.056490
      dyz     :     0.043605
      dx2y2   :     0.068511
      dxy     :     0.069040

  2 O s       :     3.496170  s :     3.496170
      pz      :     1.403965  p :     4.713619
      px      :     1.686272
      py      :     1.623383
      dz2     :     0.102857  d :     0.313284
      dxz     :     0.035796
      dyz     :     0.078693
      dx2y2   :     0.052607
      dxy     :     0.043332

  3 O s       :     3.527897  s :     3.527897
      pz      :     1.707662  p :     4.687472
      px      :     1.477234
      py      :     1.502576
      dz2     :     0.049962  d :     0.305922
      dxz     :     0.040019
      dyz     :     0.082717
      dx2y2   :     0.073083
      dxy     :     0.060141

  4 N s       :     3.118134  s :     3.118134
      pz      :     1.370701  p :     4.025325
      px      :     1.283544
      py      :     1.371081
      dz2     :     0.012930  d :     0.076043
      dxz     :     0.015733
      dyz     :     0.012766
      dx2y2   :     0.021444
      dxy     :     0.013171

  5 N s       :     3.109875  s :     3.109875
      pz      :     1.362214  p :     4.051418
      px      :     1.283760
      py      :     1.405444
      dz2     :     0.011969  d :     0.075130
      dxz     :     0.017009
      dyz     :     0.014970
      dx2y2   :     0.015514
      dxy     :     0.015668

  6 C s       :     2.887336  s :     2.887336
      pz      :     1.040198  p :     3.096908
      px      :     0.960691
      py      :     1.096018
      dz2     :     0.023620  d :     0.123085
      dxz     :     0.029148
      dyz     :     0.013837
      dx2y2   :     0.036708
      dxy     :     0.019773

  7 C s       :     2.886872  s :     2.886872
      pz      :     1.088251  p :     3.099637
      px      :     1.000208
      py      :     1.011178
      dz2     :     0.020991  d :     0.121398
      dxz     :     0.016733
      dyz     :     0.025377
      dx2y2   :     0.026198
      dxy     :     0.032100

  8 C s       :     2.975700  s :     2.975700
      pz      :     1.093676  p :     3.274766
      px      :     1.051947
      py      :     1.129143
      dz2     :     0.010036  d :     0.092053
      dxz     :     0.021330
      dyz     :     0.026198
      dx2y2   :     0.021869
      dxy     :     0.012620

  9 C s       :     3.022975  s :     3.022975
      pz      :     1.111517  p :     3.343620
      px      :     1.089259
      py      :     1.142844
      dz2     :     0.013443  d :     0.077362
      dxz     :     0.020103
      dyz     :     0.010386
      dx2y2   :     0.021904
      dxy     :     0.011525

 10 C s       :     2.941889  s :     2.941889
      pz      :     1.071049  p :     3.297552
      px      :     1.136267
      py      :     1.090235
      dz2     :     0.018480  d :     0.078425
      dxz     :     0.013505
      dyz     :     0.017993
      dx2y2   :     0.008748
      dxy     :     0.019700

 11 C s       :     2.936632  s :     2.936632
      pz      :     1.066344  p :     3.282289
      px      :     1.110366
      py      :     1.105580
      dz2     :     0.019414  d :     0.077585
      dxz     :     0.016254
      dyz     :     0.013110
      dx2y2   :     0.009192
      dxy     :     0.019615

 12 C s       :     2.735144  s :     2.735144
      pz      :     0.870282  p :     2.701534
      px      :     0.924114
      py      :     0.907138
      dz2     :     0.037977  d :     0.291462
      dxz     :     0.067513
      dyz     :     0.046432
      dx2y2   :     0.085554
      dxy     :     0.053986

 13 C s       :     2.935346  s :     2.935346
      pz      :     1.118753  p :     3.258720
      px      :     1.040027
      py      :     1.099940
      dz2     :     0.014574  d :     0.077360
      dxz     :     0.012305
      dyz     :     0.015060
      dx2y2   :     0.021177
      dxy     :     0.014244

 14 C s       :     2.923174  s :     2.923174
      pz      :     1.046652  p :     3.225377
      px      :     1.063674
      py      :     1.115052
      dz2     :     0.014487  d :     0.073687
      dxz     :     0.015155
      dyz     :     0.016705
      dx2y2   :     0.015859
      dxy     :     0.011480

 15 C s       :     2.744466  s :     2.744466
      pz      :     0.928538  p :     2.633197
      px      :     0.744562
      py      :     0.960096
      dz2     :     0.046816  d :     0.275178
      dxz     :     0.018273
      dyz     :     0.099677
      dx2y2   :     0.055100
      dxy     :     0.055313

 16 H s       :     0.834059  s :     0.834059

 17 H s       :     0.838411  s :     0.838411

 18 H s       :     0.830024  s :     0.830024

 19 H s       :     0.837829  s :     0.837829

 20 H s       :     0.841583  s :     0.841583

 21 H s       :     0.838542  s :     0.838542

 22 H s       :     0.824720  s :     0.824720

 23 H s       :     0.665396  s :     0.665396

 24 H s       :     0.700881  s :     0.700881

 25 H s       :     0.825360  s :     0.825360

 26 H s       :     0.843949  s :     0.843949

 27 H s       :     0.841518  s :     0.841518

 28 H s       :     0.834787  s :     0.834787

 29 H s       :     0.819024  s :     0.819024

 30 H s       :     0.821865  s :     0.821865

 31 H s       :     0.596607  s :     0.596607



                      *****************************
                      * MAYER POPULATION ANALYSIS *
                      *****************************

  NA   - Mulliken gross atomic population
  ZA   - Total nuclear charge
  QA   - Mulliken gross atomic charge
  VA   - Mayer's total valence
  BVA  - Mayer's bonded valence
  FA   - Mayer's free valence

  ATOM       NA         ZA         QA         VA         BVA        FA
  0 S     16.0122    16.0000    -0.0122     2.1205     2.1205     0.0000
  1 O      8.5224     8.0000    -0.5224     1.9843     1.9843    -0.0000
  2 O      8.4584     8.0000    -0.4584     1.8663     1.8663     0.0000
  3 O      8.4694     8.0000    -0.4694     2.0160     2.0160    -0.0000
  4 N      7.3102     7.0000    -0.3102     2.8465     2.8465    -0.0000
  5 N      7.3927     7.0000    -0.3927     2.9646     2.9646     0.0000
  6 C      6.2681     6.0000    -0.2681     3.9104     3.9104     0.0000
  7 C      6.0501     6.0000    -0.0501     3.7691     3.7691     0.0000
  8 C      6.0569     6.0000    -0.0569     3.4349     3.4349     0.0000
  9 C      6.4009     6.0000    -0.4009     3.7869     3.7869     0.0000
 10 C      6.5000     6.0000    -0.5000     3.8271     3.8271    -0.0000
 11 C      6.3004     6.0000    -0.3004     3.5835     3.5835    -0.0000
 12 C      5.6752     6.0000     0.3248     4.3636     4.3636    -0.0000
 13 C      6.3175     6.0000    -0.3175     3.7240     3.7240     0.0000
 14 C      6.3500     6.0000    -0.3500     3.7650     3.7650    -0.0000
 15 C      5.6103     6.0000     0.3897     3.9477     3.9477     0.0000
 16 H      0.8073     1.0000     0.1927     0.9508     0.9508     0.0000
 17 H      0.8178     1.0000     0.1822     0.9508     0.9508     0.0000
 18 H      0.7661     1.0000     0.2339     0.9171     0.9171     0.0000
 19 H      0.7879     1.0000     0.2121     0.9260     0.9260    -0.0000
 20 H      0.7995     1.0000     0.2005     0.9476     0.9476    -0.0000
 21 H      0.8045     1.0000     0.1955     0.9398     0.9398    -0.0000
 22 H      0.7650     1.0000     0.2350     0.9129     0.9129     0.0000
 23 H      0.6356     1.0000     0.3644     0.8858     0.8858    -0.0000
 24 H      0.6451     1.0000     0.3549     0.8577     0.8577    -0.0000
 25 H      0.8197     1.0000     0.1803     0.9759     0.9759    -0.0000
 26 H      0.8143     1.0000     0.1857     0.9351     0.9351     0.0000
 27 H      0.8183     1.0000     0.1817     0.9390     0.9390    -0.0000
 28 H      0.8207     1.0000     0.1793     0.9515     0.9515    -0.0000
 29 H      0.8230     1.0000     0.1770     0.9559     0.9559    -0.0000
 30 H      0.8100     1.0000     0.1900     0.9462     0.9462    -0.0000
 31 H      0.5704     1.0000     0.4296     0.8249     0.8249     0.0000

  Mayer bond orders larger than 0.100000
B(  0-S ,  8-C ) :   0.9488 B(  0-S ,  9-C ) :   1.0369 B(  1-O , 12-C ) :   1.7748 
B(  1-O , 31-H ) :   0.1671 B(  2-O , 15-C ) :   1.1730 B(  2-O , 31-H ) :   0.6390 
B(  3-O , 15-C ) :   1.8318 B(  3-O , 23-H ) :   0.1035 B(  4-N ,  6-C ) :   0.9526 
B(  4-N , 12-C ) :   1.2161 B(  4-N , 23-H ) :   0.7545 B(  5-N ,  7-C ) :   0.9697 
B(  5-N , 12-C ) :   1.1884 B(  5-N , 24-H ) :   0.8130 B(  6-C ,  7-C ) :   1.0346 
B(  6-C ,  8-C ) :   0.8645 B(  6-C , 16-H ) :   0.9348 B(  7-C ,  9-C ) :   0.9671 
B(  7-C , 17-H ) :   0.8732 B(  8-C , 10-C ) :   0.8616 B(  8-C , 18-H ) :   0.9139 
B(  9-C , 19-H ) :   0.9128 B(  9-C , 20-H ) :   0.9533 B( 10-C , 11-C ) :   0.9230 
B( 10-C , 21-H ) :   0.9079 B( 10-C , 22-H ) :   0.9790 B( 11-C , 13-C ) :   0.8751 
B( 11-C , 25-H ) :   0.9654 B( 11-C , 26-H ) :   0.9203 B( 13-C , 14-C ) :   0.9553 
B( 13-C , 27-H ) :   0.9480 B( 13-C , 28-H ) :   0.9541 B( 14-C , 15-C ) :   0.9345 
B( 14-C , 29-H ) :   0.9443 B( 14-C , 30-H ) :   0.9657 


------------------
HIRSHFELD ANALYSIS
------------------

Total integrated alpha density =     64.999971978
Total integrated beta density  =     64.999971978

  ATOM     CHARGE      SPIN    
   0 S   -0.081867    0.000000
   1 O   -0.301456    0.000000
   2 O   -0.177243    0.000000
   3 O   -0.267643    0.000000
   4 N   -0.126548    0.000000
   5 N   -0.120554    0.000000
   6 C    0.040262    0.000000
   7 C    0.041907    0.000000
   8 C   -0.004954    0.000000
   9 C   -0.040309    0.000000
  10 C   -0.052929    0.000000
  11 C   -0.046080    0.000000
  12 C    0.193892    0.000000
  13 C   -0.034331    0.000000
  14 C   -0.043471    0.000000
  15 C    0.218708    0.000000
  16 H    0.036676    0.000000
  17 H    0.035195    0.000000
  18 H    0.039201    0.000000
  19 H    0.041795    0.000000
  20 H    0.032244    0.000000
  21 H    0.024041    0.000000
  22 H    0.016861    0.000000
  23 H    0.108557    0.000000
  24 H    0.145035    0.000000
  25 H    0.021591    0.000000
  26 H    0.026358    0.000000
  27 H    0.031368    0.000000
  28 H    0.029437    0.000000
  29 H    0.039393    0.000000
  30 H    0.039398    0.000000
  31 H    0.135517    0.000000

  TOTAL   0.000056    0.000000

-------
TIMINGS
-------

Total SCF time: 0 days 0 hours 0 min 10 sec 

Total time                  ....      10.184 sec
Sum of individual times     ....      10.085 sec  ( 99.0%)

SCF preparation             ....       0.193 sec  (  1.9%)
Fock matrix formation       ....       8.341 sec  ( 81.9%)
  Startup                   ....       0.020 sec  (  0.2% of F)
  Split-RI-J                ....       1.567 sec  ( 18.8% of F)
  XC integration            ....       6.401 sec  ( 76.7% of F)
    XC Preparation          ....       0.000 sec  (  0.0% of XC)
    Basis function eval.    ....       1.582 sec  ( 24.7% of XC)
    Density eval.           ....       1.644 sec  ( 25.7% of XC)
    XC-Functional eval.     ....       0.157 sec  (  2.4% of XC)
    XC-Potential eval.      ....       1.390 sec  ( 21.7% of XC)
Diagonalization             ....       0.000 sec  (  0.0%)
Density matrix formation    ....       0.078 sec  (  0.8%)
Total Energy calculation    ....       0.038 sec  (  0.4%)
Population analysis         ....       0.750 sec  (  7.4%)
Orbital Transformation      ....       0.055 sec  (  0.5%)
Orbital Orthonormalization  ....       0.000 sec  (  0.0%)
DIIS solution               ....       0.440 sec  (  4.3%)
SOSCF solution              ....       0.191 sec  (  1.9%)
[...]
 25:    529.23   0.002327   11.76  0.001372  (-0.024083  0.001058  0.028126)
 26:    591.48   0.002732   13.81  0.001441  ( 0.008705 -0.001628  0.036920)
 27:    595.81   0.000186    0.94  0.000098  ( 0.003673  0.005896  0.007030)
 28:    668.65   0.009155   46.27  0.004273  (-0.004051  0.061655 -0.021330)
 29:    701.05   0.003693   18.66  0.001644  (-0.007375  0.039111 -0.007731)
 30:    720.96   0.000372    1.88  0.000161  ( 0.007569 -0.001027  0.010135)
 31:    723.71   0.003648   18.44  0.001573  ( 0.021101 -0.028943  0.017035)
 32:    740.09   0.001772    8.95  0.000747  (-0.022667  0.004650 -0.014548)
 33:    757.78   0.015694   79.31  0.006463  (-0.012467  0.057839 -0.054428)
 34:    780.15   0.006492   32.81  0.002597  (-0.018800  0.042296 -0.021317)
 35:    797.74   0.005688   28.75  0.002225  (-0.038381  0.026752  0.006037)
 36:    799.71   0.000274    1.38  0.000107  (-0.008751  0.005148 -0.001936)
 37:    812.93   0.003673   18.56  0.001410  (-0.026850 -0.005155  0.025740)
 38:    883.97   0.007555   38.18  0.002667  ( 0.042763  0.018884 -0.021949)
 39:    910.99   0.037164  187.81  0.012731  (-0.103074 -0.016601  0.042786)
 40:    915.15   0.002466   12.46  0.000841  (-0.028077  0.001039  0.007181)
 41:    936.17   0.004761   24.06  0.001587  ( 0.032920  0.013708 -0.017757)
 42:    958.32   0.000846    4.28  0.000275  ( 0.001376 -0.005266 -0.015680)
 43:    972.86   0.000162    0.82  0.000052  ( 0.003699 -0.001222 -0.006071)
 44:   1000.62   0.000602    3.04  0.000188  (-0.013244  0.003274  0.001233)
 45:   1041.60   0.000439    2.22  0.000132  (-0.004112 -0.007268  0.007860)
 46:   1045.82   0.002665   13.47  0.000795  (-0.015600 -0.011189 -0.020653)
 47:   1066.90   0.001314    6.64  0.000384  (-0.014130  0.004550  0.012803)
 48:   1075.07   0.006424   32.46  0.001865  (-0.020677 -0.022037 -0.030846)
 49:   1078.17   0.000996    5.03  0.000288  (-0.000813 -0.016870 -0.001709)
 50:   1107.15   0.002968   15.00  0.000836  (-0.028613 -0.003043 -0.002920)
 51:   1122.36   0.001698    8.58  0.000472  ( 0.018928  0.009964 -0.003829)
 52:   1155.03   0.005407   27.33  0.001461  (-0.007665 -0.028749 -0.023994)
 53:   1173.27   0.001286    6.50  0.000342  (-0.008612 -0.014921 -0.006723)
 54:   1188.75   0.001924    9.72  0.000505  ( 0.016661  0.014398  0.004488)
 55:   1223.67   0.000525    2.65  0.000134  ( 0.007808 -0.004146  0.007471)
 56:   1234.12   0.002041   10.32  0.000516  (-0.004496  0.006398  0.021330)
 57:   1247.86   0.004584   23.17  0.001146  (-0.013979 -0.021855 -0.021756)
 58:   1271.68   0.015325   77.45  0.003761  ( 0.001484 -0.033070 -0.051623)
 59:   1279.44   0.005762   29.12  0.001405  (-0.030576 -0.011457 -0.018419)
 60:   1288.38   0.009201   46.50  0.002229  ( 0.019556  0.010542  0.041652)
 61:   1302.54   0.003738   18.89  0.000896  (-0.017617  0.010706  0.021692)
 62:   1338.80   0.000128    0.65  0.000030  (-0.002090  0.003425  0.003695)
 63:   1341.84   0.000336    1.70  0.000078  ( 0.005497 -0.001842 -0.006678)
 64:   1351.23   0.005646   28.53  0.001304  (-0.033232 -0.007530  0.011948)
 65:   1358.06   0.001942    9.81  0.000446  ( 0.000814 -0.002238 -0.020989)
 66:   1366.71   0.001011    5.11  0.000231  (-0.014428  0.001348  0.004567)
 67:   1379.40   0.000980    4.95  0.000222  ( 0.004701  0.010864  0.009034)
 68:   1394.30   0.000336    1.70  0.000075  ( 0.003444  0.003859  0.006964)
 69:   1399.74   0.000462    2.34  0.000103  ( 0.001500  0.002559  0.009710)
 70:   1426.70   0.013631   68.88  0.002981  (-0.008170  0.021117  0.049687)
 71:   1436.02   0.002179   11.01  0.000473  (-0.007870  0.014768  0.013908)
 72:   1444.45   0.002979   15.05  0.000644  (-0.007592  0.018310  0.015832)
 73:   1484.28   0.002014   10.18  0.000423  ( 0.010902 -0.008681 -0.015139)
 74:   1486.50   0.001177    5.95  0.000247  (-0.014342  0.006272 -0.001453)
 75:   1492.34   0.000174    0.88  0.000036  ( 0.004055 -0.003748  0.002449)
 76:   1502.67   0.001352    6.83  0.000281  ( 0.000873 -0.010611  0.012938)
 77:   1505.72   0.001593    8.05  0.000330  ( 0.003718  0.015198  0.009244)
 78:   1714.14   0.039708  200.67  0.007229  ( 0.081603 -0.023838  0.001253)
 79:   1747.19   0.127898  646.34  0.022844  ( 0.091926  0.117980 -0.021770)
 80:   2991.53   0.009183   46.41  0.000958  ( 0.003432  0.015564 -0.026531)
 81:   2992.47   0.004096   20.70  0.000427  ( 0.009583  0.015981  0.008942)
 82:   3001.09   0.004896   24.74  0.000509  (-0.008738  0.015780 -0.013554)
 83:   3022.57   0.001695    8.56  0.000175  ( 0.009268  0.003911  0.008588)
 84:   3027.51   0.002747   13.88  0.000283  ( 0.014162  0.006368 -0.006484)
 85:   3031.15   0.004689   23.70  0.000483  (-0.006727  0.016054  0.013407)
 86:   3035.14   0.005903   29.83  0.000607  (-0.012889  0.015959 -0.013641)
 87:   3041.86   0.002432   12.29  0.000249  ( 0.007952 -0.006979  0.011727)
 88:   3044.03   0.009744   49.24  0.000999  (-0.012127  0.008487  0.027926)
 89:   3058.03   0.007372   37.26  0.000752  (-0.003027 -0.027190  0.001955)
 90:   3086.62   0.004422   22.35  0.000447  ( 0.001268 -0.017933 -0.011130)
 91:   3095.04   0.003436   17.37  0.000346  (-0.008757 -0.007461  0.014633)
 92:   3099.00   0.002817   14.23  0.000284  (-0.016063 -0.004474 -0.002363)
 93:   3187.65   0.128436  649.06  0.012574  ( 0.016896  0.023902 -0.108244)
 94:   3423.89   0.069258  350.00  0.006312  (-0.038166 -0.008070  0.069214)
 95:   3600.64   0.006888   34.81  0.000597  (-0.002125  0.012563  0.020847)

* The epsilon (eps) is given for a Dirac delta lineshape.
** The dipole moment derivative (T) already includes vibrational overlap.

The first frequency considered to be a vibration is 6
The total number of vibrations considered is 90


--------------------------
THERMOCHEMISTRY AT 298.15K
--------------------------

Temperature         ...   298.15 K
Pressure            ...     1.00 atm
Total Mass          ...   244.31 AMU
Quasi RRHO          ...     True
Cut-Off Frequency   ...     1.00 cm^-1

Throughout the following assumptions are being made:
  (1) The electronic state is orbitally nondegenerate
  (2) There are no thermally accessible electronically excited states
  (3) Hindered rotations indicated by low frequency modes are not
      treated as such but are treated as vibrations and this may
      cause some error
  (4) All equations used are the standard statistical mechanics
      equations for an ideal gas
  (5) All vibrations are strictly harmonic

freq.      46.96  E(vib)   ...       0.53 
freq.      84.64  E(vib)   ...       0.48 
freq.      98.63  E(vib)   ...       0.46 
freq.     109.95  E(vib)   ...       0.45 
freq.     118.54  E(vib)   ...       0.44 
freq.     140.83  E(vib)   ...       0.41 
freq.     151.16  E(vib)   ...       0.40 
freq.     173.06  E(vib)   ...       0.38 
freq.     193.17  E(vib)   ...       0.36 
freq.     247.23  E(vib)   ...       0.31 
freq.     251.65  E(vib)   ...       0.30 
freq.     315.83  E(vib)   ...       0.25 
freq.     330.28  E(vib)   ...       0.24 
freq.     379.29  E(vib)   ...       0.21 
freq.     410.64  E(vib)   ...       0.19 
freq.     435.81  E(vib)   ...       0.17 
freq.     448.76  E(vib)   ...       0.17 
freq.     459.88  E(vib)   ...       0.16 
freq.     510.75  E(vib)   ...       0.14 
freq.     529.23  E(vib)   ...       0.13 
freq.     591.48  E(vib)   ...       0.10 
freq.     595.81  E(vib)   ...       0.10 
freq.     668.65  E(vib)   ...       0.08 
freq.     701.05  E(vib)   ...       0.07 
freq.     720.96  E(vib)   ...       0.07 
freq.     723.71  E(vib)   ...       0.06 
freq.     740.09  E(vib)   ...       0.06 
freq.     757.78  E(vib)   ...       0.06 
freq.     780.15  E(vib)   ...       0.05 
freq.     797.74  E(vib)   ...       0.05 
freq.     799.71  E(vib)   ...       0.05 
freq.     812.93  E(vib)   ...       0.05 
freq.     883.97  E(vib)   ...       0.04 
freq.     910.99  E(vib)   ...       0.03 
freq.     915.15  E(vib)   ...       0.03 
freq.     936.17  E(vib)   ...       0.03 
freq.     958.32  E(vib)   ...       0.03 
freq.     972.86  E(vib)   ...       0.03 
freq.    1000.62  E(vib)   ...       0.02 
freq.    1041.60  E(vib)   ...       0.02 
freq.    1045.82  E(vib)   ...       0.02 
freq.    1066.90  E(vib)   ...       0.02 
freq.    1075.07  E(vib)   ...       0.02 
freq.    1078.17  E(vib)   ...       0.02 
freq.    1107.15  E(vib)   ...       0.02 
freq.    1122.36  E(vib)   ...       0.01 
freq.    1155.03  E(vib)   ...       0.01 
freq.    1173.27  E(vib)   ...       0.01 
freq.    1188.75  E(vib)   ...       0.01 
freq.    1223.67  E(vib)   ...       0.01 
freq.    1234.12  E(vib)   ...       0.01 
freq.    1247.86  E(vib)   ...       0.01 
freq.    1271.68  E(vib)   ...       0.01 
freq.    1279.44  E(vib)   ...       0.01 
freq.    1288.38  E(vib)   ...       0.01 
freq.    1302.54  E(vib)   ...       0.01 
freq.    1338.80  E(vib)   ...       0.01 
freq.    1341.84  E(vib)   ...       0.01 
freq.    1351.23  E(vib)   ...       0.01 
freq.    1358.06  E(vib)   ...       0.01 
freq.    1366.71  E(vib)   ...       0.01 
freq.    1379.40  E(vib)   ...       0.01 
freq.    1394.30  E(vib)   ...       0.00 
freq.    1399.74  E(vib)   ...       0.00 
freq.    1426.70  E(vib)   ...       0.00 
freq.    1436.02  E(vib)   ...       0.00 
freq.    1444.45  E(vib)   ...       0.00 
freq.    1484.28  E(vib)   ...       0.00 
freq.    1486.50  E(vib)   ...       0.00 
freq.    1492.34  E(vib)   ...       0.00 
freq.    1502.67  E(vib)   ...       0.00 
freq.    1505.72  E(vib)   ...       0.00 
freq.    1714.14  E(vib)   ...       0.00 
freq.    1747.19  E(vib)   ...       0.00 
freq.    2991.53  E(vib)   ...       0.00 
freq.    2992.47  E(vib)   ...       0.00 
freq.    3001.09  E(vib)   ...       0.00 
freq.    3022.57  E(vib)   ...       0.00 
freq.    3027.51  E(vib)   ...       0.00 
freq.    3031.15  E(vib)   ...       0.00 
freq.    3035.14  E(vib)   ...       0.00 
freq.    3041.86  E(vib)   ...       0.00 
freq.    3044.03  E(vib)   ...       0.00 
freq.    3058.03  E(vib)   ...       0.00 
freq.    3086.62  E(vib)   ...       0.00 
freq.    3095.04  E(vib)   ...       0.00 
freq.    3099.00  E(vib)   ...       0.00 
freq.    3187.65  E(vib)   ...       0.00 
freq.    3423.89  E(vib)   ...       0.00 
freq.    3600.64  E(vib)   ...       0.00 

------------
INNER ENERGY
------------

The inner energy is: U= E(el) + E(ZPE) + E(vib) + E(rot) + E(trans)
    E(el)   - is the total energy from the electronic structure calculation
              = E(kin-el) + E(nuc-el) + E(el-el) + E(nuc-nuc)
    E(ZPE)  - the the zero temperature vibrational energy from the frequency calculation
    E(vib)  - the the finite temperature correction to E(ZPE) due to population
              of excited vibrational states
    E(rot)  - is the rotational thermal energy
    E(trans)- is the translational thermal energy

Summary of contributions to the inner energy U:
Electronic energy                ...  -1123.75122524 Eh
Zero point energy                ...      0.26543970 Eh     166.57 kcal/mol
Thermal vibrational correction   ...      0.01190322 Eh       7.47 kcal/mol
Thermal rotational correction    ...      0.00141627 Eh       0.89 kcal/mol
Thermal translational correction ...      0.00141627 Eh       0.89 kcal/mol
-----------------------------------------------------------------------
Total thermal energy                  -1123.47104978 Eh


Summary of corrections to the electronic energy:
(perhaps to be used in another calculation)
Total thermal correction                  0.01473576 Eh       9.25 kcal/mol
Non-thermal (ZPE) correction              0.26543970 Eh     166.57 kcal/mol
-----------------------------------------------------------------------
Total correction                          0.28017546 Eh     175.81 kcal/mol


--------
ENTHALPY
--------

The enthalpy is H = U + kB*T
                kB is Boltzmann's constant
Total thermal energy              ...  -1123.47104978 Eh 
Thermal Enthalpy correction       ...      0.00094421 Eh       0.59 kcal/mol
-----------------------------------------------------------------------
Total Enthalpy                    ...  -1123.47010557 Eh


Note: Only C1 symmetry has been detected, increase convergence thresholds 
      if your molecule has a higher symmetry. Symmetry factor of 1.0 is   
      used for the rotational entropy correction. 
 

Note: Rotational entropy computed according to Herzberg 
Infrared and Raman Spectra, Chapter V,1, Van Nostrand Reinhold, 1945 
Point Group:  C1, Symmetry Number:   1  
Rotational constants in cm-1:     0.023751     0.013572     0.009956 

Vibrational entropy computed according to the QRRHO of S. Grimme
Chem.Eur.J. 2012 18 9955 using a reference frequency of 100.0 cm-1


-------
ENTROPY
-------

The entropy contributions are T*S = T*(S(el)+S(vib)+S(rot)+S(trans))
     S(el)   - electronic entropy
     S(vib)  - vibrational entropy
     S(rot)  - rotational entropy
     S(trans)- translational entropy
The entropies will be listed as multiplied by the temperature to get
units of energy

Electronic entropy                ...      0.00000000 Eh      0.00 kcal/mol
Vibrational entropy               ...      0.02054261 Eh     12.89 kcal/mol
Rotational entropy                ...      0.01548249 Eh      9.72 kcal/mol
Translational entropy             ...      0.02013635 Eh     12.64 kcal/mol
-----------------------------------------------------------------------
Final entropy term                ...      0.05616144 Eh     35.24 kcal/mol

In case the symmetry of your molecule has not been determined correctly
or in case you have a reason to use a different symmetry number we print 
out the resulting rotational entropy values for sn=1,12:

 non-linear molecules -----------------------------------
|  sn= 1 | S(rot)=       0.01548249 Eh      9.72 kcal/mol|
|  sn= 2 | S(rot)=       0.01482803 Eh      9.30 kcal/mol|
|  sn= 3 | S(rot)=       0.01444520 Eh      9.06 kcal/mol|
|  sn= 4 | S(rot)=       0.01417357 Eh      8.89 kcal/mol|
|  sn= 5 | S(rot)=       0.01396289 Eh      8.76 kcal/mol|
|  sn= 6 | S(rot)=       0.01379074 Eh      8.65 kcal/mol|
|  sn= 7 | S(rot)=       0.01364519 Eh      8.56 kcal/mol|
|  sn= 8 | S(rot)=       0.01351912 Eh      8.48 kcal/mol|
|  sn= 9 | S(rot)=       0.01340791 Eh      8.41 kcal/mol|
|  sn=10 | S(rot)=       0.01330843 Eh      8.35 kcal/mol|
|  sn=11 | S(rot)=       0.01321844 Eh      8.29 kcal/mol|
|  sn=12 | S(rot)=       0.01313628 Eh      8.24 kcal/mol|
 linear molecules ---------------------------------------
|  Dinfh | S(rot)=       0.00967805 Eh      6.07 kcal/mol|
|  Cinfv | S(rot)=       0.01033250 Eh      6.48 kcal/mol|
 --------------------------------------------------------


-------------------
GIBBS FREE ENERGY
-------------------

The Gibbs free energy is G = H - T*S

Total enthalpy                    ...  -1123.47010557 Eh 
Total entropy correction          ...     -0.05616144 Eh    -35.24 kcal/mol
-----------------------------------------------------------------------
Final Gibbs free energy         ...  -1123.52626701 Eh

For completeness - the Gibbs free energy minus the electronic energy
G-E(el)                           ...      0.22495823 Eh    141.16 kcal/mol


Maximum memory used throughout the entire PROP-calculation: 103.1 MB

--------------------------------
SUGGESTED CITATIONS FOR THIS RUN
--------------------------------

Below you find a list of papers that are relevant to this ORCA run
We neither can nor want to force you to cite these papers, but we appreciate if you do
You receive ORCA, which is the product of decades of hard work by many enthusiastic individuals, for free
The only thing we kindly ask in return is that you cite our papers,
We deeply appreciate it, if you show your appreciation for ORCA by not just citing the generic ORCA reference.

Please note that relegating all ORCA citations to the supporting information does *not* help us.
SI sections are not indexed - citations you put there will not count into any citation statistics
But we need these citations in order to attract the funding resources that allow us to do what we are doing

Therefore, if you are a happy ORCA user, please consider citing a few of the papers listed below in the main body of your paper

In addition to the list printed below, the program has created the file m1_00_Vitamin_B7-GFN2_000-B97-3C-TZ.bibtex that contains the list in bibtex format
You can import this file easily into all common literature databanks and citation aid programs


List of essential papers. We consider these as the minimum necessary citations

  1. Neese,F.
     Software update: the ORCA program system, version 5.0
     WIRES Comput. Molec. Sci., 2022 12(1)e1606
     doi.org/10.1002/wcms.1606

List of papers to cite with high priority. The work reported in these papers was absolutely
necessary for this run to complete.
Our perspective: the developers of density functionals and basis sets usually get cited in chemistry papers
Good! But without the algorithms to do something with them, the functionals or basis sets would not do anything.
Hence, in our opinion, the algorithm design and method developments papers are equally worthy of getting cited

  1. Neese,F.
     An improvement of the resolution of the identity approximation for the formation of the Coulomb matrix
     J. Comp. Chem., 2003 24(14)1740-1747
     doi.org/10.1002/jcc.10318
  2. Bykov,D.; Petrenko,T.; Izsak,R.; Kossmann,S.; Becker,U.; Valeev,E.; Neese,F.
     Efficient implementation of the analytic second derivatives of Hartree-Fock and hybrid DFT energies: a detailed analysis of different approximations
     Molec. Phys., 2015 113 1961-1977
     doi.org/10.1080/00268976.2015.1025114
  3. Neese,F.
     The SHARK Integral Generation and Digestion System
     J. Comp. Chem., 2022  1-16
     doi.org/10.1002/jcc.26942
  4. Grimme,S.; Antony,J.; Ehrlich,S.; Krieg,H.
     A consistent and accurate ab initio parametrization of density functional dispersion correction (DFT-D) for the 94 elements H-Pu
     J. Chem. Phys., 2010 132 154104
     doi.org/10.1063/1.3382344
  5. Grimme,S.; Ehrlich,S.; Goerigk,L.
     Effect of the damping function in dispersion corrected density functional theory
     J. Comput. Chem., 2011 32(7)1456-1465
     doi.org/10.1002/jcc.21759

List of suggested additional citations. These are papers that are important in the 'surrounding' of 
of this run, or papers that preceded the highly important papers. If you like your results we are grateful for a citation.

  1. Neese,F.
     The ORCA program system
     WIRES Comput. Molec. Sci., 2012 2(1)73-78
     doi.org/10.1002/wcms.81
  2. Neese,F.
     Software update: the ORCA program system, version 4.0
     WIRES Comput. Molec. Sci., 2018 8(1)1-6
     doi.org/10.1002/wcms.1327
  3. Neese,F.; Wennmohs,F.; Becker,U.; Riplinger,C.
     The ORCA quantum chemistry program package
     J. Chem. Phys., 2020 152 Art. No. L224108
     doi.org/10.1063/5.0004608

List of optional additional citations

  1. Neese,F.
     Approximate second-order SCF convergence for spin unrestricted wavefunctions
     Chem. Phys. Lett., 2000 325(1-3)93-98
     doi.org/10.1016/s0009-2614(00)00662-x

Timings for individual modules:

Sum of individual times          ...      400.362 sec (=   6.673 min)
Startup calculation              ...       48.660 sec (=   0.811 min)  12.2 %
SCF iterations                   ...      106.070 sec (=   1.768 min)  26.5 %
Property integrals               ...       79.414 sec (=   1.324 min)  19.8 %
SCF Response                     ...       65.246 sec (=   1.087 min)  16.3 %
Property calculations            ...       40.315 sec (=   0.672 min)  10.1 %
SCF Gradient evaluation          ...       60.522 sec (=   1.009 min)  15.1 %
Geometry relaxation              ...        0.135 sec (=   0.002 min)   0.0 %
                             ****ORCA TERMINATED NORMALLY****
TOTAL RUN TIME: 0 days 0 hours 6 minutes 43 seconds 844 msec
