
                                 *****************
                                 * O   R   C   A *
                                 *****************

                                            #,                                       
                                            ###                                      
                                            ####                                     
                                            #####                                    
                                            ######                                   
                                           ########,                                 
                                     ,,################,,,,,                         
                               ,,#################################,,                 
                          ,,##########################################,,             
                       ,#########################################, ''#####,          
                    ,#############################################,,   '####,        
                  ,##################################################,,,,####,       
                ,###########''''           ''''###############################       
              ,#####''   ,,,,##########,,,,          '''####'''          '####       
            ,##' ,,,,###########################,,,                        '##       
           ' ,,###''''                  '''############,,,                           
         ,,##''                                '''############,,,,        ,,,,,,###''
      ,#''                                            '''#######################'''  
     '                                                          ''''####''''         
             ,#######,   #######,   ,#######,      ##                                
            ,#'     '#,  ##    ##  ,#'     '#,    #''#        ,####,   ,####,        
            ##       ##  ##   ,#'  ##            #'  '#       #'       #'  '#        
            ##       ##  #######   ##           ,######,      #####,   #    #        
            '#,     ,#'  ##    ##  '#,     ,#' ,#      #,     #,   #   #,  ,#        
             '#######'   ##     ##  '#######'  #'      '#     '####' # '####'        



                #########################################################
                #                        -***-                          #
                #          Department of theory and spectroscopy        #
                #                                                       #
                #                      Frank Neese                      #
                #                                                       #
                #     Directorship, Architecture, Infrastructure        #
                #                    SHARK, DRIVERS                     #
                #        Core code/Algorithms in most modules           #
                #                                                       #
                #        Max Planck Institute fuer Kohlenforschung      #
                #                Kaiser Wilhelm Platz 1                 #
                #                 D-45470 Muelheim/Ruhr                 #
                #                      Germany                          #
                #                                                       #
                #                  All rights reserved                  #
                #                        -***-                          #
                #########################################################


                         Program Version 6.0.1  -  RELEASE   -


 With contributions from (in alphabetic order):
[Max-Planck-Institut fuer Kohlenforschung]                               
  Daniel Aravena         : Magnetic Suceptibility                        
  Michael Atanasov       : Ab Initio Ligand Field Theory (pilot matlab implementation)
  Alexander A. Auer      : GIAO ZORA, VPT2 properties, NMR spectrum      
  Ute Becker             : All parallelization in ORCA, NUMFREQ, NUMCALC 
  Giovanni Bistoni       : ED, misc. LED, open-shell LED, HFLD           
  Martin Brehm           : Molecular dynamics                            
  Dmytro Bykov           : pre 5.0 version of the SCF Hessian            
  Marcos Casanova-Páez   : Triplet and SCS-CIS(D). UHF-(DLPNO)-IP/EA/STEOM-CCSD. UHF-CVS-IP/STEOM-CCSD   
  Vijay G. Chilkuri      : MRCI spin determinant printing, contributions to CSF-ICE 
  Pauline Colinet        : FMM embedding                                 
  Dipayan Datta          : RHF DLPNO-CCSD density                        
  Achintya Kumar Dutta   : EOM-CC, STEOM-CC                              
  Nicolas Foglia         : Exact transition moments, OPA infrastructure, MCD improvements    
  Dmitry Ganyushin       : Spin-Orbit,Spin-Spin,Magnetic field MRCI      
  Miquel Garcia-Rates    : C-PCM and meta-GGA Hessian, CCSD/C-PCM, Gaussian charge scheme 
  Tiago L. C. Gouveia    : GS-ROHF, GS-ROCIS                             
  Yang Guo               : DLPNO-NEVPT2, F12-NEVPT2, CIM, IAO-localization        
  Andreas Hansen         : Spin unrestricted coupled pair/coupled cluster methods 
  Ingolf Harden          : AUTO-CI MPn and infrastructure                
  Benjamin Helmich-Paris : MC-RPA, TRAH-(SCF,CASSCF), AVAS, COSX integrals, SCF dyn. polar. 
  Lee Huntington         : MR-EOM, pCC                                   
  Robert Izsak           : Overlap fitted RIJCOSX, COSX-SCS-MP3, EOM     
  Riya Kayal             : Wick's Theorem for AUTO-CI, AUTO-CI UHF-CCSDT 
  Emily Kempfer          : AUTO-CI, RHF CISDT and CCSDT                  
  Christian Kollmar      : KDIIS, OOCD, Brueckner-CCSD(T), CCSD density, CASPT2, CASPT2-K, improved NEVPT2 
  Axel Koslowski         : Symmetry handling                             
  Simone Kossmann        : meta-GGA functionals, TD-DFT gradient, OOMP2, (MP2 Hessian; deprecated post 5.0) 
  Lucas Lang             : DCDCAS                                        
  Marvin Lechner         : AUTO-CI (C++ implementation), FIC-MRCC        
  Spencer Leger          : CASSCF response                               
  Dagmar Lenk            : GEPOL surface, SMD, ORCA-2-JSON               
  Dimitrios Liakos       : Extrapolation schemes; Compound Job, initial MDCI parallelization 
  Dimitrios Manganas     : Further ROCIS development; embedding schemes. LFT, Crystal Embedding 
  Dimitrios Pantazis     : SARC Basis sets                               
  Anastasios Papadopoulos: AUTO-CI, single reference methods and gradients 
  Taras Petrenko         : pre 6.0 DFT Hessian and TD-DFT gradient, (ASA, deprecated), ECA, 1-Electron XAS/XES, NRVS 
  Peter Pinski           : DLPNO-MP2, DLPNO-MP2 Gradient                 
  Christoph Reimann      : Effective Core Potentials                     
  Marius Retegan         : Local ZFS, SOC                                
  Christoph Riplinger    : Optimizer, TS searches, QM/MM, DLPNO-CCSD(T), (RO)-DLPNO pert. Triples 
  Michael Roemelt        : Original ROCIS implementation                 
  Masaaki Saitow         : Open-shell DLPNO-CCSD energy and density      
  Barbara Sandhoefer     : DKH picture change effects                    
  Kantharuban Sivalingam : CASSCF convergence/infrastructure, NEVPT2 and variants, FIC-MRCI 
  Bernardo de Souza      : ESD, SOC TD-DFT                               
  Georgi L. Stoychev     : AutoAux, RI-MP2 NMR, DLPNO-MP2 response, X2C  
  Van Anh Tran           : RI-MP2 g-tensors                              
  Willem Van den Heuvel  : Paramagnetic NMR                              
  Zikuan Wang            : NOTCH, Electric field optimization            
  Frank Wennmohs         : Technical directorship and infrastructure     
  Hang Xu                : AUTO-CI-Response properties                   
                                                                         
[FACCTs GmbH]                                                            
  Markus Bursch, Miquel Garcia-Rates, Christoph Riplinger, Bernardo de Souza, Georgi L. Stoychev 
                                                                 
  APM, Basis sets (HGBS, AHGBS, def-TZVP (Ac-Lr), def2-XVPD (La-Lu)), CI-OPT, improved COSX, DLPNO-Multilevel,           
  DOCKER, DRACO, updates on ESD, GOAT, IRC, LR-CPCM, MBIS, meta-GGA TD-DFT gradient, ML-optimized integration grids, 
  MM, NACMEs, nearIR, NEB, NEB-TS, NL-DFT gradient (VV10), 2- and 3-layer-ONIOM, interface openCOSMO-RS, QMMM,   
  Crystal-QMMM, SF, symmetry and pop. for TD-DFT, r2SCAN hybrids, SOLVATOR                                   
                                                                         
[Other institutions]                                                     
  V. Asgeirsson          : NEB                                           
  Christoph Bannwarth    : sTDA-DFT, sTD-DFT, PBEh-3c, B97-3c, D3        
  Sebastian Ehlert       : rSCAN, r2SCAN, r2SCAN-3c, D4, dhf basis sets  
  Marvin Friede          : D4 for Fr, Ra, Ac-Lr                          
  Lars Goerigk           : TD-DFT with DH, B97 family of functionals     
  Stefan Grimme          : VdW corrections, initial TS optimization, DFT functionals, gCP, sTDA/sTD-DF 
  Waldemar Hujo          : DFT-NL                                        
  H. Jonsson             : NEB                                           
  Holger Kruse           : gCP                                           
  Marcel Mueller         : wB97X-3c, vDZP basis set                      
  Hagen Neugebauer       : wr2SCAN                                       
  Tobias Risthaus        : range-separated hybrid DFT                    
  Lukas Wittmann         : regularized MP2, r2SCAN double-hybrids, wr2SCAN        
                                                                         
We gratefully acknowledge several colleagues who have allowed us to      
interface, adapt or use parts of their codes:                            
  Ed Valeev, F. Pavosevic, A. Kumar             : LibInt (2-el integral package), F12 methods 
  Garnet Chan, S. Sharma, J. Yang, R. Olivares  : DMRG                   
  Ulf Ekstrom                                   : XCFun DFT Library      
  Mihaly Kallay                                 : mrcc  (arbitrary order and MRCC methods)
  Frank Weinhold                                : gennbo (NPA and NBO analysis)           
  Simon Mueller                                 : openCOSMO-RS                            
  Christopher J. Cramer and Donald G. Truhlar   : smd solvation model                     
  S Lehtola, MJT Oliveira, MAL Marques          : LibXC Library                           
  Liviu Ungur et al                             : ANISO software                          


 Your calculation uses the libint2 library for the computation of 2-el integrals
 For citations please refer to: http://libint.valeyev.net

 Your ORCA version has been built with support for libXC version: 6.2.2
 For citations please refer to: https://libxc.gitlab.io

 This ORCA versions uses:
   CBLAS   interface :  Fast vector & matrix operations
   LAPACKE interface :  Fast linear algebra routines
   SCALAPACK package :  Parallel linear algebra routines
   Shared memory     :  Shared parallel matrices
   BLAS/LAPACK       :  OpenBLAS 0.3.27  USE64BITINT DYNAMIC_ARCH NO_AFFINITY Zen SINGLE_THREADED
        Core in use  :  Zen
   Copyright (c) 2011-2014, The OpenBLAS Project


NOTE: MaxCore=6000 MB was set to SCF,MP2,MDCI,CIPSI,MRCI and CIS
      => If you want to overwrite this, your respective input block should be placed after the MaxCore statement
Your calculation utilizes the atom-pairwise dispersion correction
with the Becke-Johnson damping scheme (D3BJ)


Your calculation employs the composite approach B97-3c by Grimme and coworkers.
For the correct reference, please check the publication list of the Grimme group:
http://www.thch.uni-bonn.de/tc/index.php?section=publikationen&subsection=grimme#2017
   

XCFun DFT library Copyright 2009-2010 Ulf Ekstrom and contributors.
See http://admol.org/xcfun for more information.
This is free software; see the source code for copying conditions.
There is ABSOLUTELY NO WARRANTY; not even for MERCHANTABILITY or FITNESS FOR A PARTICULAR PURPOSE.
For details see the documentation.
Scientific users of this library should cite U. Ekstrom, L. Visscher, R. Bast, A. J. Thorvaldsen and K. Ruud;
J.Chem.Theor.Comp. 2010, DOI: 10.1021/ct100117s
XCFun Version 0.99 

================================================================================

----- Orbital basis set information -----
Your calculation utilizes the basis: def2-mTZVP
----- AuxJ basis set information -----
Your calculation utilizes the basis: def2-mTZVP/J
================================================================================
                                        WARNINGS
                       Please study these warnings very carefully!
================================================================================


WARNING: Geometry Optimization
  ===> : Switching off AutoStart
         For restart on a previous wavefunction, please use MOREAD

================================================================================
                                       INPUT FILE
================================================================================
NAME = m1_00_Vitamin_B2-GFN1_0002-B97-3C-TZ.inp
|  1> %pal nprocs 16 end
|  2> %MaxCore 6000
|  3> # put your comments here
|  4> ! B97-3C  OPT  FREQ DEFGRID3 NOTRAH
|  5> %scf MaxIter 800 end
|  6> %output
|  7> Print [P_Hirshfeld] 1
|  8> end
|  9> %geom
| 10> MaxIter 3000
| 11>  TolE 1e-6 #TolE 5e-6 Energy change (a.u.)
| 12>  TolRMSG 3e-5 #TolRMSG 1e-4 RMS gradient (a.u.)
| 13>  TolMaxG 1e-4 #TolMaxG 3e-3 Max. element of gradient (a.u.)
| 14>  TolRMSD 2e-3 #TolRMSD 2e-3 RMS displacement (a.u.)
| 15>  TolMaxD 4e-3 #TolMaxD 4e-3 Max. displacement (a.u.)
| 16> end
| 17> * xyz 0 1
| 18>  O -1.26058114179606 -0.03767552794443 -1.21041165789767
| 19>  O 0.82270707267351 1.73118647866875 -1.76469171983820
| 20>  O 2.21162501617426 0.57496518326203 -3.89377180901005
| 21>  O 1.71138575830721 -2.31179240522399 -3.02450902891640
| 22>  O -1.15065182488475 -3.75186885954982 -8.08769335296635
| 23>  O 2.48178774559306 -1.73809543963803 -6.32145555874629
| 24>  N -1.52412888285917 -0.77419638607586 -4.36624292172555
| 25>  N -2.76231683508230 -2.57947417493362 -6.08871582249130
| 26>  N 0.50800495887820 -1.24940110089420 -5.32770246849794
| 27>  N 0.62906072136044 -2.67086194748327 -7.21749056434242
| 28>  C -0.32121298271122 -0.32130820696575 -2.22713479880112
| 29>  C -0.84118943914650 0.24919372291440 -3.57165674623624
| 30>  C 1.01533644399798 0.32525637798820 -1.78471573808513
| 31>  C 2.30534930282573 0.03520525461576 -2.59260675925874
| 32>  C -2.86137884275395 -1.05152457341823 -4.20784817402567
| 33>  C -0.79030587121177 -1.45536858479994 -5.29039702893559
| 34>  C -3.46436892528021 -1.97480043702665 -5.09787521853317
| 35>  C -3.65295942321871 -0.46797770849293 -3.20976753312920
| 36>  C -1.48452394413285 -2.34500106477844 -6.17844995550267
| 37>  C 2.73512873292980 -1.44289899114957 -2.60562270817680
| 38>  C -4.99301283192595 -0.78188081960814 -3.08832772688480
| 39>  C -4.83236865959025 -2.27563872289711 -4.96643266534646
| 40>  C -5.59898295546234 -1.69749728208474 -3.98160337229512
| 41>  C -0.70232095930825 -3.00400238114149 -7.25389733116145
| 42>  C -5.80191496327823 -0.14945916470548 -1.99296060177433
| 43>  C -7.05689917161149 -2.03882949687383 -3.85219712808877
| 44>  C 1.27967531196849 -1.86753564495520 -6.28150768333227
| 45>  H -0.23459837781104 -1.41107636284686 -2.29185435312663
| 46>  H -1.53449719858543 1.06871882987304 -3.37575938027213
| 47>  H -0.02481635059095 0.63470410602585 -4.18251095234341
| 48>  H 1.18326337438824 0.00722087148206 -0.74427166493000
| 49>  H 3.10069956367777 0.60390698674903 -2.08251494148381
| 50>  H -3.21264138239441 0.21804131863828 -2.49885070516202
| 51>  H 3.61768334831690 -1.53678145014864 -3.25749937966030
| 52>  H 3.01666603918157 -1.74075821838689 -1.58860185894478
| 53>  H -5.25912776769412 -2.98560037740824 -5.66534694784757
| 54>  H -1.10059389677025 0.87107429259484 -0.90888742350438
| 55>  H 1.13763053163305 2.08429778801473 -2.61233418164429
| 56>  H 1.93832827723965 -0.10933184294207 -4.53858946379419
| 57>  H -5.18864204840945 0.52253967976107 -1.39374718279422
| 58>  H -6.63371756311826 0.41854739896037 -2.41359200185821
| 59>  H -6.21939158670262 -0.91677625251326 -1.33854171049511
| 60>  H -7.35537353370737 -2.75095462592209 -4.62080255682157
| 61>  H -7.26087031077792 -2.47740401416008 -2.87365990217585
| 62>  H -7.67032019073386 -1.14149986017474 -3.95172768928097
| 63>  H 1.22730760910239 -3.10361243889145 -7.90821723947824
| 64>  H 1.46167305330218 -2.08559792550882 -3.94266839037510
| 65> *
| 66> 
| 67> 
| 68> 
| 69> 
| 70>                          ****END OF INPUT****
================================================================================

                       *****************************
                       * Geometry Optimization Run *
                       *****************************

Geometry optimization settings:
Update method            Update   .... BFGS
Choice of coordinates    CoordSys .... (2022) Redundant Internals
Initial Hessian          InHess   .... Almloef's Model
Max. no of cycles        MaxIter  .... 3000

Convergence Tolerances:
Energy Change            TolE     ....  1.0000e-06 Eh
Max. Gradient            TolMAXG  ....  1.0000e-04 Eh/bohr
RMS Gradient             TolRMSG  ....  3.0000e-05 Eh/bohr
Max. Displacement        TolMAXD  ....  4.0000e-03 bohr
RMS Displacement         TolRMSD  ....  2.0000e-03 bohr
Strict Convergence                .... False

------------------------------------------------------------------------------
                        ORCA OPTIMIZATION COORDINATE SETUP
------------------------------------------------------------------------------

The optimization will be done in redundant internal coordinates (2022)
Making redundant internal coordinates   ...  (2022 redundants) done
Evaluating the initial hessian          ...  (Almloef) done
Evaluating the coordinates              ...  done
Calculating the B-matrix                .... done
Calculating the G-matrix                .... done
Diagonalizing the G-matrix              .... done
Small eigenvalue found = 5.532e-03
Small eigenvalue found = 5.925e-03
Small eigenvalue found = 1.221e-02
Small eigenvalue found = 2.051e-02
The first mode is                       ....  109
The number of degrees of freedom        ....  135

    -----------------------------------------------------------------
                    Redundant Internal Coordinates


    -----------------------------------------------------------------
         Definition                    Initial Value    Approx d2E/dq
    -----------------------------------------------------------------
      1. B(C  10,O   0)                  1.4130         0.514246   
      2. B(C  11,C  10)                  1.5504         0.346664   
      3. B(C  11,N   6)                  1.4646         0.425432   
      4. B(C  12,C  10)                  1.5492         0.348082   
      5. B(C  12,O   1)                  1.4192         0.502665   
      6. B(C  13,C  12)                  1.5495         0.347749   
      7. B(C  13,O   2)                  1.4118         0.516545   
      8. B(C  14,N   6)                  1.3749         0.591605   
      9. B(C  15,N   8)                  1.3151         0.736905   
     10. B(C  15,N   6)                  1.3626         0.618962   
     11. B(C  16,C  14)                  1.4171         0.565583   
     12. B(C  16,N   7)                  1.3566         0.632727   
     13. B(C  17,C  14)                  1.4012         0.599666   
     14. B(C  18,C  15)                  1.4360         0.527703   
     15. B(C  18,N   7)                  1.3022         0.772535   
     16. B(C  19,C  13)                  1.5394         0.360929   
     17. B(C  19,O   3)                  1.4066         0.526514   
     18. B(C  20,C  17)                  1.3817         0.644200   
     19. B(C  21,C  16)                  1.4068         0.587311   
     20. B(C  22,C  21)                  1.3754         0.659127   
     21. B(C  22,C  20)                  1.4154         0.569032   
     22. B(C  23,C  18)                  1.4842         0.442102   
     23. B(C  23,N   9)                  1.3729         0.595854   
     24. B(C  23,O   4)                  1.2064         1.098294   
     25. B(C  24,C  20)                  1.5014         0.415008   
     26. B(C  25,C  22)                  1.5029         0.412648   
     27. B(C  26,N   9)                  1.3945         0.550374   
     28. B(C  26,N   8)                  1.3738         0.593924   
     29. B(C  26,O   5)                  1.2097         1.085173   
     30. B(H  27,C  10)                  1.0951         0.353392   
     31. B(H  28,C  11)                  1.0912         0.358543   
     32. B(H  29,C  11)                  1.0901         0.360023   
     33. B(H  30,C  12)                  1.1008         0.346030   
     34. B(H  31,C  13)                  1.1028         0.343542   
     35. B(H  32,C  17)                  1.0816         0.371356   
     36. B(H  33,C  19)                  1.1012         0.345574   
     37. B(H  34,C  19)                  1.0965         0.351602   
     38. B(H  35,C  21)                  1.0838         0.368379   
     39. B(H  36,O   1)                  2.2740         0.004164   
     40. B(H  36,O   0)                  0.9707         0.499838   
     41. B(H  37,O   2)                  2.2525         0.004507   
     42. B(H  37,O   1)                  0.9708         0.499816   
     43. B(H  38,N   8)                  1.9921         0.011732   
     44. B(H  38,O   2)                  0.9792         0.484626   
     45. B(H  39,C  24)                  1.0894         0.360925   
     46. B(H  40,C  24)                  1.0915         0.358070   
     47. B(H  41,C  24)                  1.0915         0.358149   
     48. B(H  42,C  25)                  1.0895         0.360791   
     49. B(H  43,C  25)                  1.0916         0.358052   
     50. B(H  44,C  25)                  1.0915         0.358109   
     51. B(H  45,N   9)                  1.0111         0.431000   
     52. B(H  46,N   8)                  1.8780         0.017836   
     53. B(H  46,O   3)                  0.9780         0.486638   
     54. A(C  10,O   0,H  36)          107.5685         0.356069   
     55. A(C  12,O   1,H  37)          107.6977         0.354693   
     56. A(C  13,O   2,H  38)          110.9946         0.354475   
     57. A(C  19,O   3,H  46)          108.8164         0.355876   
     58. A(C  14,N   6,C  15)          120.0748         0.424701   
     59. A(C  11,N   6,C  14)          122.1394         0.397388   
     60. A(C  11,N   6,C  15)          117.7850         0.400559   
     61. A(C  16,N   7,C  18)          118.5474         0.447380   
     62. A(C  15,N   8,C  26)          120.2498         0.438528   
     63. A(C  23,N   9,H  45)          116.8606         0.356016   
     64. A(C  23,N   9,C  26)          127.5907         0.416425   
     65. A(C  26,N   9,H  45)          115.4060         0.351260   
     66. A(C  11,C  10,H  27)          109.9658         0.319388   
     67. A(O   0,C  10,H  27)          107.1487         0.338824   
     68. A(O   0,C  10,C  11)          109.0979         0.376597   
     69. A(C  12,C  10,H  27)          111.3428         0.319601   
     70. A(C  11,C  10,C  12)          112.5464         0.354467   
     71. A(O   0,C  10,C  12)          106.5157         0.376863   
     72. A(C  10,C  11,H  28)          109.4983         0.320144   
     73. A(N   6,C  11,H  29)          106.9966         0.329339   
     74. A(C  10,C  11,H  29)          111.4042         0.320359   
     75. A(N   6,C  11,H  28)          109.0210         0.329115   
     76. A(H  28,C  11,H  29)          108.1098         0.290632   
     77. A(N   6,C  11,C  10)          111.7009         0.364516   
     78. A(C  13,C  12,H  30)          108.1618         0.318455   
     79. A(O   1,C  12,C  13)          107.8060         0.375320   
     80. A(C  10,C  12,H  30)          106.3159         0.318504   
     81. A(O   1,C  12,H  30)          107.0716         0.336358   
     82. A(O   1,C  12,C  10)          107.4799         0.375382   
     83. A(C  10,C  12,C  13)          119.4210         0.354655   
     84. A(O   2,C  13,H  31)          106.0821         0.337481   
     85. A(C  12,C  13,H  31)          105.2323         0.318080   
     86. A(C  12,C  13,C  19)          114.6191         0.356843   
     87. A(O   2,C  13,C  19)          112.2004         0.379527   
     88. A(C  19,C  13,H  31)          107.3205         0.320017   
     89. A(O   2,C  13,C  12)          110.7136         0.377091   
     90. A(N   6,C  14,C  17)          123.1987         0.425068   
     91. A(N   6,C  14,C  16)          118.2248         0.420647   
     92. A(C  16,C  14,C  17)          118.5764         0.424424   
     93. A(N   6,C  15,N   8)          118.2059         0.441810   
     94. A(N   8,C  15,C  18)          123.8329         0.432123   
     95. A(N   6,C  15,C  18)          117.9567         0.418841   
     96. A(C  14,C  16,C  21)          119.6303         0.422847   
     97. A(N   7,C  16,C  21)          118.4348         0.428615   
     98. A(N   7,C  16,C  14)          121.9336         0.425730   
     99. A(C  20,C  17,H  32)          118.7608         0.357067   
    100. A(C  14,C  17,H  32)          120.1555         0.352756   
    101. A(C  14,C  17,C  20)          121.0584         0.434452   
    102. A(N   7,C  18,C  23)          119.1523         0.422191   
    103. A(N   7,C  18,C  15)          122.9095         0.435809   
    104. A(C  15,C  18,C  23)          117.9319         0.397188   
    105. A(O   3,C  19,H  34)          107.1748         0.339872   
    106. A(C  13,C  19,H  33)          108.0967         0.320326   
    107. A(O   3,C  19,H  33)          110.7538         0.338892   
    108. A(O   3,C  19,C  13)          113.1078         0.380787   
    109. A(C  13,C  19,H  34)          108.9459         0.321233   
    110. A(H  33,C  19,H  34)          108.6701         0.287889   
    111. A(C  17,C  20,C  22)          120.4449         0.430377   
    112. A(C  22,C  20,C  24)          120.1494         0.398038   
    113. A(C  17,C  20,C  24)          119.4045         0.406839   
    114. A(C  16,C  21,C  22)          121.2642         0.434616   
    115. A(C  22,C  21,H  35)          121.1720         0.357970   
    116. A(C  16,C  21,H  35)          117.5623         0.351038   
    117. A(C  20,C  22,C  21)          119.0228         0.432151   
    118. A(C  21,C  22,C  25)          120.4547         0.408079   
    119. A(C  20,C  22,C  25)          120.5218         0.397639   
    120. A(O   4,C  23,N   9)          121.9457         0.471848   
    121. A(N   9,C  23,C  18)          112.5900         0.403172   
    122. A(O   4,C  23,C  18)          125.4639         0.449809   
    123. A(H  40,C  24,H  41)          107.7823         0.290334   
    124. A(H  39,C  24,H  41)          108.6139         0.290696   
    125. A(C  20,C  24,H  41)          110.3272         0.329692   
    126. A(H  39,C  24,H  40)          108.6608         0.290686   
    127. A(C  20,C  24,H  40)          110.4030         0.329680   
    128. A(C  20,C  24,H  39)          110.9676         0.330113   
    129. A(H  43,C  25,H  44)          107.8810         0.290326   
    130. A(H  42,C  25,H  44)          108.6062         0.290674   
    131. A(C  22,C  25,H  44)          110.5243         0.329375   
    132. A(H  42,C  25,H  43)          108.5794         0.290666   
    133. A(C  22,C  25,H  43)          110.4694         0.329367   
    134. A(C  22,C  25,H  42)          110.6992         0.329782   
    135. A(N   8,C  26,N   9)          117.5889         0.416184   
    136. A(O   5,C  26,N   9)          120.2046         0.464008   
    137. A(O   5,C  26,N   8)          122.2055         0.470528   
    138. D(C  11,C  10,O   0,H  36)    -82.4357         0.020948   
    139. D(H  27,C  10,O   0,H  36)    158.5519         0.020948   
    140. D(C  12,C  10,O   0,H  36)     39.2924         0.020948   
    141. D(N   6,C  11,C  10,H  27)     20.7256         0.009698   
    142. D(N   6,C  11,C  10,C  12)    145.4822         0.009698   
    143. D(H  28,C  11,N   6,C  15)    145.2825         0.015431   
    144. D(H  29,C  11,N   6,C  14)   -151.0863         0.015431   
    145. D(H  28,C  11,C  10,O   0)     24.3484         0.009698   
    146. D(H  28,C  11,C  10,H  27)    141.5915         0.009698   
    147. D(C  10,C  11,N   6,C  14)     86.7482         0.015431   
    148. D(H  28,C  11,N   6,C  14)    -34.3951         0.015431   
    149. D(H  28,C  11,C  10,C  12)    -93.6519         0.009698   
    150. D(C  10,C  11,N   6,C  15)    -93.5743         0.015431   
    151. D(N   6,C  11,C  10,O   0)    -96.5175         0.009698   
    152. D(C  10,C  12,O   1,H  37)    -95.7485         0.021680   
    153. D(C  13,C  12,C  10,H  27)     55.3121         0.009770   
    154. D(C  13,C  12,C  10,C  11)    -68.6857         0.009770   
    155. D(C  13,C  12,C  10,O   0)    171.8024         0.009770   
    156. D(O   1,C  12,C  10,H  27)    178.3823         0.009770   
    157. D(O   1,C  12,C  10,C  11)     54.3844         0.009770   
    158. D(H  30,C  12,O   1,H  37)    150.3717         0.021680   
    159. D(O   1,C  12,C  10,O   0)    -65.1274         0.009770   
    160. D(C  13,C  12,O   1,H  37)     34.1971         0.021680   
    161. D(C  19,C  13,C  12,O   1)    174.6943         0.009753   
    162. D(O   2,C  13,C  12,C  10)     65.7480         0.009753   
    163. D(O   2,C  13,C  12,O   1)    -57.1624         0.009753   
    164. D(O   2,C  13,C  12,H  30)   -172.6214         0.009753   
    165. D(H  31,C  13,O   2,H  38)    148.7649         0.022947   
    166. D(C  12,C  13,O   2,H  38)    -97.5727         0.022947   
    167. D(C  19,C  13,C  12,C  10)    -62.3953         0.009753   
    168. D(C  19,C  13,O   2,H  38)     31.8734         0.022947   
    169. D(C  19,C  13,C  12,H  30)     59.2353         0.009753   
    170. D(C  17,C  14,N   6,C  15)    174.8489         0.028146   
    171. D(C  17,C  14,N   6,C  11)     -5.4807         0.028146   
    172. D(C  16,C  14,N   6,C  15)     -5.0383         0.028146   
    173. D(C  16,C  14,N   6,C  11)    174.6321         0.028146   
    174. D(C  18,C  15,N   8,C  26)      2.1497         0.049457   
    175. D(C  18,C  15,N   6,C  14)      6.8839         0.031015   
    176. D(C  18,C  15,N   6,C  11)   -172.8006         0.031015   
    177. D(N   8,C  15,N   6,C  14)   -173.8689         0.031015   
    178. D(N   6,C  15,N   8,C  26)   -177.0498         0.049457   
    179. D(N   8,C  15,N   6,C  11)      6.4466         0.031015   
    180. D(C  21,C  16,C  14,C  17)      0.3976         0.021929   
    181. D(C  21,C  16,C  14,N   6)   -179.7099         0.021929   
    182. D(N   7,C  16,C  14,C  17)    179.9839         0.021929   
    183. D(C  21,C  16,N   7,C  18)   -177.2208         0.029461   
    184. D(C  14,C  16,N   7,C  18)      3.1881         0.029461   
    185. D(N   7,C  16,C  14,N   6)     -0.1236         0.021929   
    186. D(H  32,C  17,C  14,C  16)    178.2219         0.024788   
    187. D(H  32,C  17,C  14,N   6)     -1.6649         0.024788   
    188. D(C  20,C  17,C  14,C  16)      0.0744         0.024788   
    189. D(C  20,C  17,C  14,N   6)   -179.8125         0.024788   
    190. D(C  23,C  18,C  15,N   8)     -3.9721         0.019004   
    191. D(C  23,C  18,C  15,N   6)    175.2293         0.019004   
    192. D(N   7,C  18,C  15,N   8)    176.9550         0.019004   
    193. D(N   7,C  18,C  15,N   6)     -3.8436         0.019004   
    194. D(C  23,C  18,N   7,C  16)    179.7427         0.045625   
    195. D(C  15,C  18,N   7,C  16)     -1.1952         0.045625   
    196. D(O   3,C  19,C  13,C  12)     53.4012         0.010448   
    197. D(O   3,C  19,C  13,O   2)    -73.9878         0.010448   
    198. D(H  34,C  19,O   3,H  46)   -178.1547         0.022001   
    199. D(H  33,C  19,O   3,H  46)    -59.7674         0.022001   
    200. D(C  13,C  19,O   3,H  46)     61.7558         0.022001   
    201. D(H  33,C  19,C  13,H  31)    -67.1271         0.010448   
    202. D(H  33,C  19,C  13,C  12)    176.4088         0.010448   
    203. D(H  33,C  19,C  13,O   2)     49.0198         0.010448   
    204. D(O   3,C  19,C  13,H  31)    169.8653         0.010448   
    205. D(C  24,C  20,C  17,H  32)      0.9574         0.028859   
    206. D(C  24,C  20,C  17,C  14)    179.1303         0.028859   
    207. D(C  22,C  20,C  17,H  32)   -178.6451         0.028859   
    208. D(C  22,C  20,C  17,C  14)     -0.4722         0.028859   
    209. D(H  35,C  21,C  16,C  14)    179.9539         0.023727   
    210. D(H  35,C  21,C  16,N   7)      0.3531         0.023727   
    211. D(C  22,C  21,C  16,C  14)     -0.4834         0.023727   
    212. D(C  22,C  21,C  16,N   7)    179.9159         0.023727   
    213. D(C  25,C  22,C  21,H  35)     -0.0540         0.030310   
    214. D(C  25,C  22,C  21,C  16)   -179.6010         0.030310   
    215. D(C  20,C  22,C  21,H  35)    179.6369         0.030310   
    216. D(C  20,C  22,C  21,C  16)      0.0899         0.030310   
    217. D(C  25,C  22,C  20,C  24)      0.4803         0.022208   
    218. D(C  25,C  22,C  20,C  17)   -179.9201         0.022208   
    219. D(C  21,C  22,C  20,C  24)   -179.2104         0.022208   
    220. D(C  21,C  22,C  20,C  17)      0.3891         0.022208   
    221. D(N   9,C  23,C  18,N   7)   -179.5347         0.013333   
    222. D(O   4,C  23,C  18,C  15)   -178.4395         0.013333   
    223. D(O   4,C  23,C  18,N   7)      0.6693         0.013333   
    224. D(C  18,C  23,N   9,H  45)    178.4497         0.028580   
    225. D(C  18,C  23,N   9,C  26)      3.0194         0.028580   
    226. D(O   4,C  23,N   9,H  45)     -1.7462         0.028580   
    227. D(N   9,C  23,C  18,C  15)      1.3564         0.013333   
    228. D(O   4,C  23,N   9,C  26)   -177.1765         0.028580   
    229. D(H  41,C  24,C  20,C  17)   -120.3541         0.012745   
    230. D(H  40,C  24,C  20,C  22)    -59.7808         0.012745   
    231. D(H  40,C  24,C  20,C  17)    120.6155         0.012745   
    232. D(H  39,C  24,C  20,C  22)    179.6798         0.012745   
    233. D(H  39,C  24,C  20,C  17)      0.0761         0.012745   
    234. D(H  44,C  25,C  22,C  20)     59.3141         0.012606   
    235. D(H  43,C  25,C  22,C  21)    119.6802         0.012606   
    236. D(H  43,C  25,C  22,C  20)    -60.0060         0.012606   
    237. D(H  42,C  25,C  22,C  21)     -0.6249         0.012606   
    238. D(H  42,C  25,C  22,C  20)    179.6888         0.012606   
    239. D(N   8,C  26,N   9,H  45)    179.5345         0.024145   
    240. D(N   8,C  26,N   9,C  23)     -4.9786         0.024145   
    241. D(O   5,C  26,N   9,H  45)     -0.8184         0.024145   
    242. D(O   5,C  26,N   9,C  23)    174.6685         0.024145   
    243. D(N   9,C  26,N   8,C  15)      2.1117         0.030852   
    244. D(O   5,C  26,N   8,C  15)   -177.5278         0.030852   
    -----------------------------------------------------------------

Number of atoms                         .... 47
Number of degrees of freedom            .... 244


         *************************************************************
         *                GEOMETRY OPTIMIZATION CYCLE   1            *
         *************************************************************
---------------------------------
CARTESIAN COORDINATES (ANGSTROEM)
---------------------------------
  O     -1.260581   -0.037676   -1.210412
  O      0.822707    1.731186   -1.764692
  O      2.211625    0.574965   -3.893772
  O      1.711386   -2.311792   -3.024509
  O     -1.150652   -3.751869   -8.087693
  O      2.481788   -1.738095   -6.321456
  N     -1.524129   -0.774196   -4.366243
  N     -2.762317   -2.579474   -6.088716
  N      0.508005   -1.249401   -5.327702
  N      0.629061   -2.670862   -7.217491
  C     -0.321213   -0.321308   -2.227135
  C     -0.841189    0.249194   -3.571657
  C      1.015336    0.325256   -1.784716
  C      2.305349    0.035205   -2.592607
  C     -2.861379   -1.051525   -4.207848
  C     -0.790306   -1.455369   -5.290397
  C     -3.464369   -1.974800   -5.097875
  C     -3.652959   -0.467978   -3.209768
  C     -1.484524   -2.345001   -6.178450
  C      2.735129   -1.442899   -2.605623
  C     -4.993013   -0.781881   -3.088328
  C     -4.832369   -2.275639   -4.966433
  C     -5.598983   -1.697497   -3.981603
  C     -0.702321   -3.004002   -7.253897
  C     -5.801915   -0.149459   -1.992961
  C     -7.056899   -2.038829   -3.852197
  C      1.279675   -1.867536   -6.281508
  H     -0.234598   -1.411076   -2.291854
  H     -1.534497    1.068719   -3.375759
  H     -0.024816    0.634704   -4.182511
  H      1.183263    0.007221   -0.744272
  H      3.100700    0.603907   -2.082515
  H     -3.212641    0.218041   -2.498851
  H      3.617683   -1.536781   -3.257499
  H      3.016666   -1.740758   -1.588602
  H     -5.259128   -2.985600   -5.665347
  H     -1.100594    0.871074   -0.908887
  H      1.137631    2.084298   -2.612334
  H      1.938328   -0.109332   -4.538589
  H     -5.188642    0.522540   -1.393747
  H     -6.633718    0.418547   -2.413592
  H     -6.219392   -0.916776   -1.338542
  H     -7.355374   -2.750955   -4.620803
  H     -7.260870   -2.477404   -2.873660
  H     -7.670320   -1.141500   -3.951728
  H      1.227308   -3.103612   -7.908217
  H      1.461673   -2.085598   -3.942668

----------------------------
CARTESIAN COORDINATES (A.U.)
----------------------------
  NO LB      ZA    FRAG     MASS         X           Y           Z
   0 O     8.0000    0    15.999   -2.382153   -0.071196   -2.287347
   1 O     8.0000    0    15.999    1.554691    3.271468   -3.334784
   2 O     8.0000    0    15.999    4.179366    1.086527   -7.358162
   3 O     8.0000    0    15.999    3.234050   -4.368655   -5.715494
   4 O     8.0000    0    15.999   -2.174417   -7.090005  -15.283525
   5 O     8.0000    0    15.999    4.689899   -3.284524  -11.945820
   6 N     7.0000    0    14.007   -2.880186   -1.463019   -8.251003
   7 N     7.0000    0    14.007   -5.220022   -4.874500  -11.506005
   8 N     7.0000    0    14.007    0.959990   -2.361026  -10.067899
   9 N     7.0000    0    14.007    1.188752   -5.047198  -13.639081
  10 C     6.0000    0    12.011   -0.607005   -0.607185   -4.208675
  11 C     6.0000    0    12.011   -1.589618    0.470908   -6.749453
  12 C     6.0000    0    12.011    1.918708    0.614645   -3.372624
  13 C     6.0000    0    12.011    4.356479    0.066528   -4.899317
  14 C     6.0000    0    12.011   -5.407222   -1.987093   -7.951681
  15 C     6.0000    0    12.011   -1.493462   -2.750248   -9.997402
  16 C     6.0000    0    12.011   -6.546708   -3.731832   -9.633588
  17 C     6.0000    0    12.011   -6.903093   -0.884350   -6.065582
  18 C     6.0000    0    12.011   -2.805344   -4.431410  -11.675578
  19 C     6.0000    0    12.011    5.168644   -2.726684   -4.923913
  20 C     6.0000    0    12.011   -9.435427   -1.477541   -5.836094
  21 C     6.0000    0    12.011   -9.131853   -4.300334   -9.385198
  22 C     6.0000    0    12.011  -10.580544   -3.207805   -7.524140
  23 C     6.0000    0    12.011   -1.327194   -5.676742  -13.707879
  24 C     6.0000    0    12.011  -10.964030   -0.282437   -3.766150
  25 C     6.0000    0    12.011  -13.335607   -3.852829   -7.279598
  26 C     6.0000    0    12.011    2.418236   -3.529131  -11.870329
  27 H     1.0000    0     1.008   -0.443327   -2.666548   -4.330977
  28 H     1.0000    0     1.008   -2.899779    2.019586   -6.379261
  29 H     1.0000    0     1.008   -0.046896    1.199417   -7.903800
  30 H     1.0000    0     1.008    2.236044    0.013645   -1.406470
  31 H     1.0000    0     1.008    5.859473    1.141219   -3.935383
  32 H     1.0000    0     1.008   -6.071012    0.412038   -4.722143
  33 H     1.0000    0     1.008    6.836431   -2.904096   -6.155782
  34 H     1.0000    0     1.008    5.700673   -3.289556   -3.002022
  35 H     1.0000    0     1.008   -9.938311   -5.641967  -10.705954
  36 H     1.0000    0     1.008   -2.079821    1.646092   -1.717548
  37 H     1.0000    0     1.008    2.149810    3.938752   -4.936596
  38 H     1.0000    0     1.008    3.662910   -0.206607   -8.576691
  39 H     1.0000    0     1.008   -9.805112    0.987457   -2.633800
  40 H     1.0000    0     1.008  -12.535909    0.790940   -4.561028
  41 H     1.0000    0     1.008  -11.752947   -1.732456   -2.529477
  42 H     1.0000    0     1.008  -13.899642   -5.198551   -8.732051
  43 H     1.0000    0     1.008  -13.721056   -4.681615   -5.430430
  44 H     1.0000    0     1.008  -14.494805   -2.157122   -7.467683
  45 H     1.0000    0     1.008    2.319275   -5.864978  -14.944365
  46 H     1.0000    0     1.008    2.762162   -3.941209   -7.450563

--------------------------------
INTERNAL COORDINATES (ANGSTROEM)
--------------------------------
 O      0   0   0     0.000000000000     0.00000000     0.00000000
 O      1   0   0     2.788581892298     0.00000000     0.00000000
 O      2   1   0     2.792655145885   105.09798708     0.00000000
 O      3   2   1     3.056014802099    95.32617511   326.56175464
 O      4   3   2     5.991737212296    93.71874133   120.22441599
 O      3   2   1     3.364057926718   151.02048255    10.06927502
 N      1   2   3     3.251336856131    90.64860959   325.58240553
 N      7   1   2     2.785507169951   141.54060635   169.45203254
 N      6   3   2     2.263224657481    57.63066044    17.83278047
 N      5   4   3     2.256813147898    35.15063537    43.19422328
 C      1   2   3     1.413006008536    59.17929182     1.46024579
 C      7   1   2     1.464616260061    43.72482911   347.81048737
 C      2   1   3     1.419206286628    58.38669864   319.47130360
 C      3   2   1     1.411791595518    59.24697061   287.02445366
 C      7   1   2     1.374859001801    90.72830992   208.66056674
 C      9   6   3     1.315076161968   147.10104460   175.66789580
 C      8   7   1     1.356566463214    59.30306619    46.48701821
 C     15   7   1     1.401175122769   123.19865147    26.78982322
 C      8   7   1     1.302222917236    59.31921779   229.67959012
 C      4   3   2     1.406588494484    51.83364098   274.64944580
 C     18  15   7     1.381675044248   121.05844470   180.18752773
 C     17   8   7     1.406841885965   118.43481745   179.65357866
 C     22  17   8     1.375439471831   121.26419722   179.91587788
 C      5   4   3     1.206449601323    24.42488711   341.25800041
 C     21  18  15     1.501369024081   119.40448102   179.13028967
 C     23  22  17     1.502921604809   120.45472406   180.39897615
 C      6   3   2     1.209721001958    88.27725441    22.06924068
 H     11   1   2     1.095118872117   107.14873774   150.11214273
 H     12   7   1     1.091179558196   109.02101601   275.03563065
 H     12   7   1     1.090057859163   106.99656054   158.34439204
 H     13   2   1     1.100849629474   107.07163411   277.28803150
 H     14   3   2     1.102813384091   106.08206987   274.57051559
 H     18  15   7     1.081621384288   120.15548133   358.33507746
 H     20   4   3     1.101208318200   110.75375761   270.00509100
 H     20   4   3     1.096501154507   107.17479653   151.61777950
 H     22  17   8     1.083812742825   117.56230323     0.35310595
 H      1   2   3     0.970741478885    49.06511401   192.13407927
 H      2   1   3     0.970753380034   130.28991374    46.38520338
 H      3   2   1     0.979154398195   130.73749192    19.18807120
 H     25  21  18     1.089377270078   110.96759139     0.07614213
 H     25  21  18     1.091539186747   110.40297592   120.61548304
 H     25  21  18     1.091478964346   110.32724863   239.64594950
 H     26  23  22     1.089478521738   110.69923404   359.37512344
 H     26  23  22     1.091552534385   110.46942038   119.68024121
 H     26  23  22     1.091509118703   110.52425568   239.00042731
 H     10   5   4     1.011076488823    89.89526553   133.46280723
 H      4   3   2     0.978027090999    63.65948890   126.77246352

---------------------------
INTERNAL COORDINATES (A.U.)
---------------------------
 O      0   0   0     0.000000000000     0.00000000     0.00000000
 O      1   0   0     5.269656078455     0.00000000     0.00000000
 O      2   1   0     5.277353412209   105.09798708     0.00000000
 O      3   2   1     5.775031037177    95.32617511   326.56175464
 O      4   3   2    11.322742397664    93.71874133   120.22441599
 O      3   2   1     6.357148180143   151.02048255    10.06927502
 N      1   2   3     6.144136227212    90.64860959   325.58240553
 N      7   1   2     5.263845695281   141.54060635   169.45203254
 N      6   3   2     4.276874782177    57.63066044    17.83278047
 N      5   4   3     4.264758784961    35.15063537    43.19422328
 C      1   2   3     2.670194381719    59.17929182     1.46024579
 C      7   1   2     2.767723622804    43.72482911   347.81048737
 C      2   1   3     2.681911209265    58.38669864   319.47130360
 C      3   2   1     2.667899473700    59.24697061   287.02445366
 C      7   1   2     2.598106986159    90.72830992   208.66056674
 C      9   6   3     2.485133791368   147.10104460   175.66789580
 C      8   7   1     2.563539097937    59.30306619    46.48701821
 C     15   7   1     2.647837247696   123.19865147    26.78982322
 C      8   7   1     2.460844678892    59.31921779   229.67959012
 C      4   3   2     2.658067037699    51.83364098   274.64944580
 C     18  15   7     2.610987439701   121.05844470   180.18752773
 C     17   8   7     2.658545878203   118.43481745   179.65357866
 C     22  17   8     2.599203915547   121.26419722   179.91587788
 C      5   4   3     2.279859340879    24.42488711   341.25800041
 C     21  18  15     2.837176281465   119.40448102   179.13028967
 C     23  22  17     2.840110233843   120.45472406   180.39897615
 C      6   3   2     2.286041392153    88.27725441    22.06924068
 H     11   1   2     2.069474752390   107.14873774   150.11214273
 H     12   7   1     2.062030527924   109.02101601   275.03563065
 H     12   7   1     2.059910823947   106.99656054   158.34439204
 H     13   2   1     2.080304314334   107.07163411   277.28803150
 H     14   3   2     2.084015272754   106.08206987   274.57051559
 H     18  15   7     2.043968196896   120.15548133   358.33507746
 H     20   4   3     2.080982137794   110.75375761   270.00509100
 H     20   4   3     2.072086887546   107.17479653   151.61777950
 H     22  17   8     2.048109264393   117.56230323     0.35310595
 H      1   2   3     1.834435541930    49.06511401   192.13407927
 H      2   1   3     1.834458031843   130.28991374    46.38520338
 H      3   2   1     1.850333655414   130.73749192    19.18807120
 H     25  21  18     2.058624696966   110.96759139     0.07614213
 H     25  21  18     2.062710127395   110.40297592   120.61548304
 H     25  21  18     2.062596323551   110.32724863   239.64594950
 H     26  23  22     2.058816034874   110.69923404   359.37512344
 H     26  23  22     2.062735350776   110.46942038   119.68024121
 H     26  23  22     2.062653307026   110.52425568   239.00042731
 H     10   5   4     1.910657664323    89.89526553   133.46280723
 H      4   3   2     1.848203353545    63.65948890   126.77246352

---------------------
BASIS SET INFORMATION
---------------------
There are 4 groups of distinct atoms

 Group   1 Type O   : 11s6p2d contracted to 5s3p2d pattern {62111/411/11}
 Group   2 Type N   : 11s6p1d contracted to 5s3p1d pattern {62111/411/1}
 Group   3 Type C   : 11s6p1d contracted to 5s3p1d pattern {62111/411/1}
 Group   4 Type H   : 5s contracted to 3s pattern {311}

Atom   0O    basis set group =>   1
Atom   1O    basis set group =>   1
Atom   2O    basis set group =>   1
Atom   3O    basis set group =>   1
Atom   4O    basis set group =>   1
Atom   5O    basis set group =>   1
Atom   6N    basis set group =>   2
Atom   7N    basis set group =>   2
Atom   8N    basis set group =>   2
Atom   9N    basis set group =>   2
Atom  10C    basis set group =>   3
Atom  11C    basis set group =>   3
Atom  12C    basis set group =>   3
Atom  13C    basis set group =>   3
Atom  14C    basis set group =>   3
Atom  15C    basis set group =>   3
Atom  16C    basis set group =>   3
Atom  17C    basis set group =>   3
Atom  18C    basis set group =>   3
Atom  19C    basis set group =>   3
Atom  20C    basis set group =>   3
Atom  21C    basis set group =>   3
Atom  22C    basis set group =>   3
Atom  23C    basis set group =>   3
Atom  24C    basis set group =>   3
Atom  25C    basis set group =>   3
Atom  26C    basis set group =>   3
Atom  27H    basis set group =>   4
Atom  28H    basis set group =>   4
Atom  29H    basis set group =>   4
Atom  30H    basis set group =>   4
Atom  31H    basis set group =>   4
Atom  32H    basis set group =>   4
Atom  33H    basis set group =>   4
Atom  34H    basis set group =>   4
Atom  35H    basis set group =>   4
Atom  36H    basis set group =>   4
Atom  37H    basis set group =>   4
Atom  38H    basis set group =>   4
Atom  39H    basis set group =>   4
Atom  40H    basis set group =>   4
Atom  41H    basis set group =>   4
Atom  42H    basis set group =>   4
Atom  43H    basis set group =>   4
Atom  44H    basis set group =>   4
Atom  45H    basis set group =>   4
Atom  46H    basis set group =>   4
---------------------------------
AUXILIARY/J BASIS SET INFORMATION
---------------------------------
There are 4 groups of distinct atoms

 Group   1 Type O   : 8s3p3d contracted to 6s3p3d pattern {311111/111/111}
 Group   2 Type N   : 8s3p3d contracted to 6s3p3d pattern {311111/111/111}
 Group   3 Type C   : 8s3p3d contracted to 6s3p3d pattern {311111/111/111}
 Group   4 Type H   : 5s2p contracted to 3s1p pattern {311/2}

Atom   0O    basis set group =>   1
Atom   1O    basis set group =>   1
Atom   2O    basis set group =>   1
Atom   3O    basis set group =>   1
Atom   4O    basis set group =>   1
Atom   5O    basis set group =>   1
Atom   6N    basis set group =>   2
Atom   7N    basis set group =>   2
Atom   8N    basis set group =>   2
Atom   9N    basis set group =>   2
Atom  10C    basis set group =>   3
Atom  11C    basis set group =>   3
Atom  12C    basis set group =>   3
Atom  13C    basis set group =>   3
Atom  14C    basis set group =>   3
Atom  15C    basis set group =>   3
Atom  16C    basis set group =>   3
Atom  17C    basis set group =>   3
Atom  18C    basis set group =>   3
Atom  19C    basis set group =>   3
Atom  20C    basis set group =>   3
Atom  21C    basis set group =>   3
Atom  22C    basis set group =>   3
Atom  23C    basis set group =>   3
Atom  24C    basis set group =>   3
Atom  25C    basis set group =>   3
Atom  26C    basis set group =>   3
Atom  27H    basis set group =>   4
Atom  28H    basis set group =>   4
Atom  29H    basis set group =>   4
Atom  30H    basis set group =>   4
Atom  31H    basis set group =>   4
Atom  32H    basis set group =>   4
Atom  33H    basis set group =>   4
Atom  34H    basis set group =>   4
Atom  35H    basis set group =>   4
Atom  36H    basis set group =>   4
Atom  37H    basis set group =>   4
Atom  38H    basis set group =>   4
Atom  39H    basis set group =>   4
Atom  40H    basis set group =>   4
Atom  41H    basis set group =>   4
Atom  42H    basis set group =>   4
Atom  43H    basis set group =>   4
Atom  44H    basis set group =>   4
Atom  45H    basis set group =>   4
Atom  46H    basis set group =>   4


           ************************************************************
           *        Program running with 16 parallel MPI-processes    *
           *              working on a common directory               *
           ************************************************************
------------------------------------------------------------------------------
                             ORCA STARTUP CALCULATIONS
                           -- RI-GTO INTEGRALS CHOSEN --
------------------------------------------------------------------------------
------------------------------------------------------------------------------
                   ___                                                        
                  /   \      - P O W E R E D   B Y -                         
                 /     \                                                     
                 |  |  |   _    _      __       _____    __    __             
                 |  |  |  | |  | |    /  \     |  _  \  |  |  /  |          
                  \  \/   | |  | |   /    \    | | | |  |  | /  /          
                 / \  \   | |__| |  /  /\  \   | |_| |  |  |/  /          
                |  |  |   |  __  | /  /__\  \  |    /   |      \           
                |  |  |   | |  | | |   __   |  |    \   |  |\   \          
                \     /   | |  | | |  |  |  |  | |\  \  |  | \   \       
                 \___/    |_|  |_| |__|  |__|  |_| \__\ |__|  \__/        
                                                                              
                      - O R C A' S   B I G   F R I E N D -                    
                                      &                                       
                       - I N T E G R A L  F E E D E R -                       
                                                                              
 v1 FN, 2020, v2 2021, v3 2022-2024                                           
------------------------------------------------------------------------------


----------------------
SHARK INTEGRAL PACKAGE
----------------------

Number of atoms                             ...     47
Number of basis functions                   ...    603
Number of shells                            ...    309
Maximum angular momentum                    ...      2
Integral batch strategy                     ... SHARK/LIBINT Hybrid
RI-J (if used) integral strategy            ... SPLIT-RIJ (Revised 2003 algorithm where possible)
Printlevel                                  ...      1
Contraction scheme used                     ... SEGMENTED contraction
Prescreening option                         ... SCHWARTZ
   Thresh                                   ... 2.500e-11
   Tcut                                     ... 2.500e-12
   Tpresel                                  ... 2.500e-12 
Coulomb Range Separation                    ... NOT USED
Exchange Range Separation                   ... NOT USED
Multipole approximations                    ... NOT USED
Finite Nucleus Model                        ... NOT USED
CABS basis                                  ... NOT available
Auxiliary Coulomb fitting basis             ... AVAILABLE
   # of basis functions in Aux-J            ...    930
   # of shells in Aux-J                     ...    404
   Maximum angular momentum in Aux-J        ...      2
Auxiliary J/K fitting basis                 ... NOT available
Auxiliary Correlation fitting basis         ... NOT available
Auxiliary 'external' fitting basis          ... NOT available

Checking pre-screening integrals            ... done (  0.0 sec) Dimension = 309
Check shell pair data                       ... done (  0.0 sec)
Shell pair information
Shell pair cut-off parameter TPreSel        ...   2.5e-12
Total number of shell pairs                 ...     47895
Shell pairs after pre-screening             ...     33745
Total number of primitive shell pairs       ...    176182
Primitive shell pairs kept                  ...     76469
          la=0 lb=0:  12336 shell pairs
          la=1 lb=0:  11887 shell pairs
          la=1 lb=1:   2818 shell pairs
          la=2 lb=0:   4220 shell pairs
          la=2 lb=1:   2090 shell pairs
          la=2 lb=2:    394 shell pairs

Calculating one electron integrals          ... done (  0.0 sec)
Calculating RI/J V-Matrix + Cholesky decomp.... done (  0.0 sec)
Calculating Nuclear repulsion               ... done (  0.0 sec) ENN=   2674.716679742096 Eh

Diagonalization of the overlap matrix:
Smallest eigenvalue                        ... 4.754e-06
Time for diagonalization                   ...    0.035 sec
Threshold for overlap eigenvalues          ... 1.000e-07
Number of eigenvalues below threshold      ... 0
Time for construction of square roots      ...    0.022 sec
Total time needed                          ...    0.062 sec

-------------------
DFT GRID GENERATION
-------------------

General Integration Accuracy     IntAcc      ... 4.959
Radial Grid Type                 RadialGrid  ... OptM3 with GC (2021)
Angular Grid (max. ang.)         AngularGrid ... 6 (Lebedev-590)
Angular grid pruning method      GridPruning ... 4 (adaptive)
Weight generation scheme         WeightScheme... mBecke (2022)
Basis function cutoff            BFCut       ... 1.0000e-11
Integration weight cutoff        WCut        ... 1.0000e-14
Partially contracted basis set               ... off
Rotationally invariant grid construction     ... off
Angular grids for H and He will be reduced by one unit
Diffuse basis detected: some atoms will have their outermost
                        angular grid increased by 1.

Total number of grid points                  ...   553400
Total number of batches                      ...     8670
Average number of points per batch           ...       63
Average number of grid points per atom       ...    11774
Initializing property integral containers    ... done (  0.0 sec)

SHARK setup successfully completed in   4.5 seconds

Maximum memory used throughout the entire STARTUP-calculation: 137.6 MB


           ************************************************************
           *        Program running with 16 parallel MPI-processes    *
           *              working on a common directory               *
           ************************************************************
-------------------------------------------------------------------------------
                                 ORCA GUESS
                   Start orbitals & Density for SCF / CASSCF
-------------------------------------------------------------------------------

------------
SCF SETTINGS
------------
Hamiltonian:
 Density Functional     Method          .... DFT(GTOs)
 Exchange Functional    Exchange        .... B973C
 Correlation Functional Correlation     .... B973C
 Gradients option       PostSCFGGA      .... off
 RI-approximation to the Coulomb term is turned on
   Number of AuxJ basis functions       .... 930


General Settings:
 Integral files         IntName         .... m1_00_Vitamin_B2-GFN1_0002-B97-3C-TZ
 Hartree-Fock type      HFTyp           .... RHF
 Total Charge           Charge          ....    0
 Multiplicity           Mult            ....    1
 Number of Electrons    NEL             ....  198
 Basis Dimension        Dim             ....  603
 Nuclear Repulsion      ENuc            ....   2674.7166797421 Eh

Convergence Acceleration:
 AO-DIIS                CNVDIIS         .... on
   Start iteration      DIISMaxIt       ....    12
   Startup error        DIISStart       ....  0.200000
   # of expansion vecs  DIISMaxEq       ....     5
   Bias factor          DIISBfac        ....   1.050
   Max. coefficient     DIISMaxC        ....  10.000
 MO-DIIS                CNVKDIIS        .... off
 Trust-Rad. Augm. Hess. CNVTRAH         .... off
 SOSCF                  CNVSOSCF        .... on
   Start iteration      SOSCFMaxIt      ....   150
   Startup grad/error   SOSCFStart      ....  0.003300
   Hessian update       SOSCFHessUp     .... L-BFGS
 Level Shifting         CNVShift        .... on
   Level shift para.    LevelShift      ....    0.2500
   Turn off err/grad.   ShiftErr        ....    0.0010
 Zerner damping         CNVZerner       .... off
 Static damping         CNVDamp         .... on
   Fraction old density DampFac         ....    0.7000
   Max. Damping (<1)    DampMax         ....    0.9800
   Min. Damping (>=0)   DampMin         ....    0.0000
   Turn off err/grad.   DampErr         ....    0.1000

SCF Procedure:
 Maximum # iterations   MaxIter         ....   800
 SCF integral mode      SCFMode         .... Direct
   Integral package                     .... SHARK and LIBINT hybrid scheme
 Reset frequency        DirectResetFreq ....    20
 Integral Threshold     Thresh          ....  2.500e-11 Eh
 Primitive CutOff       TCut            ....  2.500e-12 Eh

Convergence Tolerance:
 Convergence Check Mode ConvCheckMode   .... Total+1el-Energy
 Convergence forced     ConvForced      .... 0
 Energy Change          TolE            ....  1.000e-08 Eh
 1-El. energy change                    ....  1.000e-05 Eh
 Orbital Gradient       TolG            ....  1.000e-05
 Orbital Rotation angle TolX            ....  1.000e-05
 DIIS Error             TolErr          ....  5.000e-07

--------------------------------
INITIAL GUESS: MINIMAL BASIS EHT
--------------------------------
The minimal basis has 155 functions
EHT matrix was diagonalized
Basis set overlap was calculated now projecting the orbitals
Using GuessMode=FMatrix for the initial guess
C*T matrix was formed
Effective Fockian was calculated
Effective Fockian was diagonalized
Initial density was built
                      ------------------
                      INITIAL GUESS DONE
                      ------------------
             **** ENERGY FILE WAS UPDATED (m1_00_Vitamin_B2-GFN1_0002-B97-3C-TZ.en.tmp) ****
Finished Guess after   0.4 sec
Maximum memory used throughout the entire GUESS-calculation: 58.7 MB


           ************************************************************
           *        Program running with 16 parallel MPI-processes    *
           *              working on a common directory               *
           ************************************************************

-------------------------------------------------------------------------------------------
                                      ORCA LEAN-SCF
                              memory conserving SCF solver
-------------------------------------------------------------------------------------------

----------------------------------------D-I-I-S--------------------------------------------
Iteration    Energy (Eh)           Delta-E    RMSDP     MaxDP     DIISErr   Damp  Time(sec)
-------------------------------------------------------------------------------------------
               ***  Starting incremental Fock matrix formation  ***
    1    -1324.7002993824853547     0.00e+00  7.48e-03  3.53e-01  4.67e-01  0.700   1.5
Warning: op=0 Small HOMO/LUMO gap (   0.019) - skipping pre-diagonalization
         Will do a full diagonalization
    2    -1326.4283854562659144    -1.73e+00  6.28e-03  6.64e-01  3.31e-01  0.700   1.6
    3    -1327.3043225680808064    -8.76e-01  3.77e-03  2.78e-01  2.37e-01  0.700   1.5
                               ***Turning on AO-DIIS***
    4    -1327.9171744000068429    -6.13e-01  3.08e-03  2.56e-01  1.66e-01  0.700   1.5
    5    -1328.3454778344384977    -4.28e-01  2.23e-03  1.76e-01  1.14e-01  0.700   1.5
    6    -1328.6489039428961405    -3.03e-01  1.49e-03  1.19e-01  7.89e-02  0.700   1.5
    7    -1328.8637903951071166    -2.15e-01  3.22e-03  2.52e-01  5.53e-02  0.000   1.5
    8    -1329.3605704488577430    -4.97e-01  4.50e-04  4.90e-02  2.48e-02  0.000   1.5
    9    -1329.3641018386078940    -3.53e-03  1.85e-04  2.24e-02  1.07e-02  0.000   1.5
   10    -1329.3643277175378898    -2.26e-04  7.14e-05  4.26e-03  5.64e-03  0.000   1.5
                              *** Initializing SOSCF ***
---------------------------------------S-O-S-C-F--------------------------------------
Iteration    Energy (Eh)           Delta-E    RMSDP     MaxDP     MaxGrad    Time(sec)
--------------------------------------------------------------------------------------
   11    -1329.3645687697039648    -2.41e-04  5.34e-05  5.08e-03  1.33e-03     1.6
               *** Restarting incremental Fock matrix formation ***
   12    -1329.3645833588757341    -1.46e-05  1.18e-04  1.19e-02  1.17e-04     1.6
   13    -1329.3645788292215002     4.53e-06  3.20e-05  3.31e-03  3.23e-04     1.4
   14    -1329.3645856178527538    -6.79e-06  2.10e-05  1.26e-03  3.77e-05     1.4
   15    -1329.3645851289234088     4.89e-07  1.26e-05  8.34e-04  8.31e-05     1.4
   16    -1329.3645857527176304    -6.24e-07  2.21e-05  1.57e-03  1.34e-05     1.4
   17    -1329.3645857297187831     2.30e-08  6.86e-06  5.94e-04  3.10e-05     1.4
   18    -1329.3645857761803200    -4.65e-08  1.30e-05  1.22e-03  1.33e-06     1.4
                  *** Gradient check signals convergence ***

               *****************************************************
               *                     SUCCESS                       *
               *           SCF CONVERGED AFTER  18 CYCLES          *
               *****************************************************

             **** ENERGY FILE WAS UPDATED (m1_00_Vitamin_B2-GFN1_0002-B97-3C-TZ.en.tmp) ****

----------------
TOTAL SCF ENERGY
----------------

Total Energy       :      -1329.36458577618032 Eh          -36173.84942 eV

Components:
Nuclear Repulsion  :       2674.71667974209595 Eh           72782.74106 eV
Electronic Energy  :      -4004.08126551827627 Eh         -108956.59048 eV
One Electron Energy:      -7133.15778552809024 Eh         -194103.09135 eV
Two Electron Energy:       3129.07652000981398 Eh           85146.50087 eV

Virial components:
Potential Energy   :      -2654.01218002402175 Eh          -72219.34298 eV
Kinetic Energy     :       1324.64759424784143 Eh           36045.49356 eV
Virial Ratio       :          2.00356094069760

DFT components:
N(Alpha)           :       99.000001409314 electrons
N(Beta)            :       99.000001409314 electrons
N(Total)           :      198.000002818629 electrons
E(XC)              :     -178.107083126719 Eh       

---------------
SCF CONVERGENCE
---------------

  Last Energy change         ...    4.6462e-08  Tolerance :   1.0000e-08
  Last MAX-Density change    ...    1.2163e-03  Tolerance :   1.0000e-07
  Last RMS-Density change    ...    1.3027e-05  Tolerance :   5.0000e-09
  Last DIIS Error            ...    1.3307e-03  Tolerance :   5.0000e-07
  Last Orbital Gradient      ...    1.3327e-06  Tolerance :   1.0000e-05
  Last Orbital Rotation      ...    1.1908e-05  Tolerance :   1.0000e-05


----------------
ORBITAL ENERGIES
----------------

  NO   OCC          E(Eh)            E(eV) 
   0   2.0000     -18.757223      -510.4100 
   1   2.0000     -18.755689      -510.3682 
   2   2.0000     -18.740265      -509.9485 
   3   2.0000     -18.733740      -509.7710 
   4   2.0000     -18.732768      -509.7445 
   5   2.0000     -18.729133      -509.6456 
   6   2.0000     -14.099128      -383.6568 
   7   2.0000     -14.045914      -382.2087 
   8   2.0000     -14.032547      -381.8450 
   9   2.0000     -14.004043      -381.0694 
  10   2.0000     -10.029248      -272.9097 
  11   2.0000     -10.015309      -272.5304 
  12   2.0000     -10.013274      -272.4751 
  13   2.0000      -9.983092      -271.6537 
  14   2.0000      -9.973668      -271.3973 
  15   2.0000      -9.963572      -271.1226 
  16   2.0000      -9.957234      -270.9501 
  17   2.0000      -9.952302      -270.8159 
  18   2.0000      -9.952077      -270.8098 
  19   2.0000      -9.945653      -270.6350 
  20   2.0000      -9.941663      -270.5264 
  21   2.0000      -9.935189      -270.3503 
  22   2.0000      -9.932753      -270.2839 
  23   2.0000      -9.924978      -270.0724 
  24   2.0000      -9.924061      -270.0474 
  25   2.0000      -9.915760      -269.8215 
  26   2.0000      -9.912928      -269.7445 
  27   2.0000      -1.005240       -27.3540 
  28   2.0000      -0.979687       -26.6586 
  29   2.0000      -0.979396       -26.6507 
  30   2.0000      -0.972047       -26.4508 
  31   2.0000      -0.953479       -25.9455 
  32   2.0000      -0.941554       -25.6210 
  33   2.0000      -0.926414       -25.2090 
  34   2.0000      -0.901058       -24.5190 
  35   2.0000      -0.891761       -24.2660 
  36   2.0000      -0.852740       -23.2042 
  37   2.0000      -0.820569       -22.3288 
  38   2.0000      -0.751207       -20.4414 
  39   2.0000      -0.738559       -20.0972 
  40   2.0000      -0.726550       -19.7704 
  41   2.0000      -0.697046       -18.9676 
  42   2.0000      -0.687613       -18.7109 
  43   2.0000      -0.677075       -18.4242 
  44   2.0000      -0.645318       -17.5600 
  45   2.0000      -0.638584       -17.3768 
  46   2.0000      -0.618923       -16.8418 
  47   2.0000      -0.596870       -16.2416 
  48   2.0000      -0.584341       -15.9007 
  49   2.0000      -0.571954       -15.5636 
  50   2.0000      -0.561955       -15.2916 
  51   2.0000      -0.558990       -15.2109 
  52   2.0000      -0.540598       -14.7104 
  53   2.0000      -0.531454       -14.4616 
  54   2.0000      -0.493250       -13.4220 
  55   2.0000      -0.485709       -13.2168 
  56   2.0000      -0.479477       -13.0472 
  57   2.0000      -0.477382       -12.9902 
  58   2.0000      -0.469841       -12.7850 
  59   2.0000      -0.463057       -12.6004 
  60   2.0000      -0.451442       -12.2844 
  61   2.0000      -0.441730       -12.0201 
  62   2.0000      -0.434350       -11.8193 
  63   2.0000      -0.425573       -11.5804 
  64   2.0000      -0.422809       -11.5052 
  65   2.0000      -0.419885       -11.4257 
  66   2.0000      -0.418396       -11.3851 
  67   2.0000      -0.410419       -11.1681 
  68   2.0000      -0.403225       -10.9723 
  69   2.0000      -0.397557       -10.8181 
  70   2.0000      -0.395693       -10.7674 
  71   2.0000      -0.389238       -10.5917 
  72   2.0000      -0.386905       -10.5282 
  73   2.0000      -0.385284       -10.4841 
  74   2.0000      -0.377399       -10.2695 
  75   2.0000      -0.374229       -10.1833 
  76   2.0000      -0.372916       -10.1476 
  77   2.0000      -0.368115       -10.0169 
  78   2.0000      -0.353154        -9.6098 
  79   2.0000      -0.346513        -9.4291 
  80   2.0000      -0.343049        -9.3348 
  81   2.0000      -0.339789        -9.2461 
  82   2.0000      -0.333699        -9.0804 
  83   2.0000      -0.319972        -8.7069 
  84   2.0000      -0.315516        -8.5856 
  85   2.0000      -0.303394        -8.2558 
  86   2.0000      -0.298081        -8.1112 
  87   2.0000      -0.286196        -7.7878 
  88   2.0000      -0.272851        -7.4246 
  89   2.0000      -0.260416        -7.0863 
  90   2.0000      -0.258002        -7.0206 
  91   2.0000      -0.255344        -6.9483 
  92   2.0000      -0.250981        -6.8295 
  93   2.0000      -0.245236        -6.6732 
  94   2.0000      -0.242708        -6.6044 
  95   2.0000      -0.230762        -6.2793 
  96   2.0000      -0.227556        -6.1921 
  97   2.0000      -0.221898        -6.0382 
  98   2.0000      -0.213981        -5.8227 
  99   0.0000      -0.141079        -3.8390 
 100   0.0000      -0.081749        -2.2245 
 101   0.0000      -0.055584        -1.5125 
 102   0.0000      -0.033830        -0.9206 
 103   0.0000      -0.011286        -0.3071 
 104   0.0000       0.004020         0.1094 
 105   0.0000       0.011890         0.3235 
 106   0.0000       0.022955         0.6246 
 107   0.0000       0.035725         0.9721 
 108   0.0000       0.038809         1.0561 
 109   0.0000       0.041289         1.1235 
*Only the first 10 virtual orbitals were printed.

                    ********************************
                    * MULLIKEN POPULATION ANALYSIS *
                    ********************************

-----------------------
MULLIKEN ATOMIC CHARGES
-----------------------
   0 O :   -0.603076
   1 O :   -0.613120
   2 O :   -0.601010
   3 O :   -0.539981
   4 O :   -0.341187
   5 O :   -0.431719
   6 N :    0.049569
   7 N :    0.047959
   8 N :   -0.498950
   9 N :   -0.381970
  10 C :    0.201300
  11 C :   -0.468870
  12 C :   -0.081200
  13 C :    0.101323
  14 C :   -0.018824
  15 C :    0.148811
  16 C :   -0.046359
  17 C :   -0.158864
  18 C :    0.062378
  19 C :   -0.202971
  20 C :    0.189417
  21 C :   -0.217631
  22 C :    0.167317
  23 C :    0.155642
  24 C :   -0.640600
  25 C :   -0.629975
  26 C :    0.430578
  27 H :    0.180535
  28 H :    0.221061
  29 H :    0.217452
  30 H :    0.140187
  31 H :    0.144061
  32 H :    0.252680
  33 H :    0.182948
  34 H :    0.158458
  35 H :    0.208971
  36 H :    0.425004
  37 H :    0.438241
  38 H :    0.444346
  39 H :    0.196703
  40 H :    0.183160
  41 H :    0.185355
  42 H :    0.196490
  43 H :    0.181477
  44 H :    0.179117
  45 H :    0.366460
  46 H :    0.419308
Sum of atomic charges:   -0.0000000

--------------------------------
MULLIKEN REDUCED ORBITAL CHARGES
--------------------------------
  0 O s       :     3.824117  s :     3.824117
      pz      :     1.580837  p :     4.742965
      px      :     1.674466
      py      :     1.487662
      dz2     :     0.001648  d :     0.035993
      dxz     :     0.008620
      dyz     :     0.003054
      dx2y2   :     0.015084
      dxy     :     0.007587

  1 O s       :     3.805283  s :     3.805283
      pz      :     1.586116  p :     4.764316
      px      :     1.857651
      py      :     1.320549
      dz2     :     0.016161  d :     0.043520
      dxz     :     0.005970
      dyz     :     0.010392
      dx2y2   :     0.005521
      dxy     :     0.005476

  2 O s       :     3.791133  s :     3.791133
      pz      :     1.253646  p :     4.780042
      px      :     1.871901
      py      :     1.654495
      dz2     :     0.000437  d :     0.029835
      dxz     :     0.005836
      dyz     :     0.009921
      dx2y2   :     0.007242
      dxy     :     0.006399

  3 O s       :     3.798812  s :     3.798812
      pz      :     1.452550  p :     4.727322
      px      :     1.574713
      py      :     1.700059
      dz2     :     0.008690  d :     0.013846
      dxz     :    -0.001479
      dyz     :     0.004020
      dx2y2   :    -0.004595
      dxy     :     0.007211

  4 O s       :     3.842820  s :     3.842820
      pz      :     1.401402  p :     4.469103
      px      :     1.703810
      py      :     1.363890
      dz2     :     0.004569  d :     0.029263
      dxz     :     0.005525
      dyz     :     0.010820
      dx2y2   :     0.002979
      dxy     :     0.005370

  5 O s       :     3.857564  s :     3.857564
      pz      :     1.674757  p :     4.543693
      px      :     1.295103
      py      :     1.573834
      dz2     :     0.007705  d :     0.030462
      dxz     :     0.001347
      dyz     :     0.002383
      dx2y2   :     0.014704
      dxy     :     0.004323

  6 N s       :     3.233035  s :     3.233035
      pz      :     1.306913  p :     3.663565
      px      :     1.127122
      py      :     1.229530
      dz2     :     0.009502  d :     0.053830
      dxz     :     0.012188
      dyz     :     0.007438
      dx2y2   :     0.011492
      dxy     :     0.013211

  7 N s       :     3.484912  s :     3.484912
      pz      :     1.166092  p :     3.418455
      px      :     1.071713
      py      :     1.180650
      dz2     :     0.009942  d :     0.048674
      dxz     :     0.010264
      dyz     :     0.007243
      dx2y2   :     0.010107
      dxy     :     0.011118

  8 N s       :     3.501485  s :     3.501485
      pz      :     1.356660  p :     3.955605
      px      :     1.143103
      py      :     1.455842
      dz2     :     0.007621  d :     0.041860
      dxz     :     0.009269
      dyz     :     0.006231
      dx2y2   :     0.009645
      dxy     :     0.009095

  9 N s       :     3.360510  s :     3.360510
      pz      :     1.351986  p :     3.982054
      px      :     1.184851
      py      :     1.445217
      dz2     :     0.005339  d :     0.039406
      dxz     :     0.011683
      dyz     :     0.006037
      dx2y2   :     0.007401
      dxy     :     0.008945

 10 C s       :     3.011445  s :     3.011445
      pz      :     0.843231  p :     2.718775
      px      :     0.843896
      py      :     1.031648
      dz2     :     0.019327  d :     0.068480
      dxz     :     0.017282
      dyz     :     0.008165
      dx2y2   :     0.015684
      dxy     :     0.008023

 11 C s       :     3.333646  s :     3.333646
      pz      :     0.991144  p :     3.084026
      px      :     1.167446
      py      :     0.925436
      dz2     :     0.009165  d :     0.051198
      dxz     :     0.012459
      dyz     :     0.011145
      dx2y2   :     0.004907
      dxy     :     0.013522

 12 C s       :     3.241124  s :     3.241124
      pz      :     1.024505  p :     2.771849
      px      :     0.988206
      py      :     0.759138
      dz2     :     0.013548  d :     0.068226
      dxz     :     0.008432
      dyz     :     0.011114
      dx2y2   :     0.017992
      dxy     :     0.017140

 13 C s       :     3.096847  s :     3.096847
      pz      :     0.796815  p :     2.732084
      px      :     0.984586
      py      :     0.950683
      dz2     :     0.015485  d :     0.069746
      dxz     :     0.019924
      dyz     :     0.014340
      dx2y2   :     0.010283
      dxy     :     0.009714

 14 C s       :     3.248743  s :     3.248743
      pz      :     0.884223  p :     2.708747
      px      :     0.877237
      py      :     0.947288
      dz2     :     0.011221  d :     0.061334
      dxz     :     0.014683
      dyz     :     0.007988
      dx2y2   :     0.014312
      dxy     :     0.013131

 15 C s       :     3.137891  s :     3.137891
      pz      :     0.936008  p :     2.630600
      px      :     0.838259
      py      :     0.856334
      dz2     :     0.012714  d :     0.082698
      dxz     :     0.024089
      dyz     :     0.008131
      dx2y2   :     0.014325
      dxy     :     0.023438

 16 C s       :     3.170925  s :     3.170925
      pz      :     0.903381  p :     2.812256
      px      :     0.907818
      py      :     1.001057
      dz2     :     0.011323  d :     0.063178
      dxz     :     0.016070
      dyz     :     0.010010
      dx2y2   :     0.013419
      dxy     :     0.012356

 17 C s       :     2.851162  s :     2.851162
      pz      :     1.166222  p :     3.267639
      px      :     1.020999
      py      :     1.080417
      dz2     :     0.005774  d :     0.040063
      dxz     :     0.011311
      dyz     :     0.006554
      dx2y2   :     0.007184
      dxy     :     0.009240

 18 C s       :     3.132463  s :     3.132463
      pz      :     0.921764  p :     2.742637
      px      :     0.872252
      py      :     0.948621
      dz2     :     0.008242  d :     0.062521
      dxz     :     0.020291
      dyz     :     0.006403
      dx2y2   :     0.011773
      dxy     :     0.015812

 19 C s       :     3.219795  s :     3.219795
      pz      :     1.099046  p :     2.917991
      px      :     0.931157
      py      :     0.887788
      dz2     :     0.012129  d :     0.065186
      dxz     :     0.012965
      dyz     :     0.007140
      dx2y2   :     0.019728
      dxy     :     0.013224

 20 C s       :     3.298794  s :     3.298794
      pz      :     0.757093  p :     2.462782
      px      :     0.912958
      py      :     0.792732
[...]
 95:   1369.52   0.011698   59.12  0.002665  ( 0.007776 -0.026814 -0.043429)
 96:   1373.68   0.002742   13.86  0.000623  (-0.004153 -0.017546 -0.017257)
 97:   1392.81   0.002999   15.15  0.000672  ( 0.000117 -0.017402 -0.019210)
 98:   1394.55   0.001615    8.16  0.000361  ( 0.001620 -0.013071 -0.013707)
 99:   1398.10   0.016746   84.63  0.003738  (-0.054428  0.012743  0.024761)
100:   1411.08   0.001802    9.10  0.000398  ( 0.011970 -0.006987 -0.014363)
101:   1416.04   0.012824   64.81  0.002826  (-0.038630  0.017738  0.031925)
102:   1423.07   0.000961    4.86  0.000211  (-0.010885  0.008838  0.003753)
103:   1423.32   0.013399   67.72  0.002938  (-0.031254 -0.041783  0.014667)
104:   1426.86   0.004422   22.34  0.000967  ( 0.013510 -0.024744 -0.013125)
105:   1433.30   0.000910    4.60  0.000198  ( 0.006254 -0.006186 -0.010985)
106:   1452.69   0.006318   31.93  0.001357  ( 0.004218  0.013197  0.034135)
107:   1470.87   0.005567   28.13  0.001181  (-0.028003 -0.002145 -0.019807)
108:   1478.91   0.000046    0.23  0.000010  ( 0.002117 -0.002269 -0.000244)
109:   1487.20   0.001449    7.32  0.000304  (-0.015255  0.007542 -0.003812)
110:   1489.96   0.015908   80.40  0.003332  (-0.048993 -0.027269  0.013714)
111:   1496.59   0.004480   22.64  0.000934  (-0.015318 -0.018803 -0.018602)
112:   1498.89   0.006678   33.75  0.001390  (-0.021733  0.017338 -0.024846)
113:   1500.57   0.005429   27.43  0.001129  ( 0.031518  0.008005  0.008457)
114:   1524.15   0.009636   48.69  0.001973  (-0.043349  0.006112  0.007506)
115:   1530.41   0.008477   42.84  0.001728  ( 0.031900 -0.016761 -0.020734)
116:   1563.92   0.125307  633.25  0.025004  (-0.140014  0.026389  0.068581)
117:   1586.66   0.070069  354.10  0.013781  ( 0.107106 -0.015108 -0.045620)
118:   1658.09   0.000672    3.40  0.000127  (-0.004917 -0.006041 -0.008114)
119:   1728.00   0.108280  547.21  0.019555  ( 0.137762  0.018440 -0.015368)
120:   1756.16   0.068958  348.49  0.012254  ( 0.033957  0.063173  0.084319)
121:   2967.48   0.004943   24.98  0.000520  ( 0.020458 -0.010032 -0.000818)
122:   2982.11   0.016197   81.86  0.001695  (-0.037653 -0.007245 -0.014992)
123:   2999.34   0.000857    4.33  0.000089  ( 0.006161  0.005981  0.003926)
124:   3000.27   0.011708   59.17  0.001218  ( 0.031994 -0.002483 -0.013711)
125:   3009.20   0.006058   30.61  0.000628  ( 0.011603 -0.005291  0.021577)
126:   3036.31   0.008920   45.08  0.000917  ( 0.006810 -0.003289  0.029319)
127:   3047.82   0.005109   25.82  0.000523  ( 0.005151 -0.017423  0.013894)
128:   3049.28   0.000626    3.16  0.000064  (-0.002906  0.006167 -0.004190)
129:   3066.75   0.002130   10.76  0.000217  (-0.004990  0.013471  0.003221)
130:   3090.36   0.000824    4.16  0.000083  (-0.002027 -0.008891  0.000245)
131:   3096.88   0.003743   18.91  0.000377  ( 0.007762  0.012126  0.013034)
132:   3103.59   0.002695   13.62  0.000271  ( 0.007327  0.010210  0.010630)
133:   3155.69   0.000782    3.95  0.000077  (-0.008305  0.000825 -0.002779)
134:   3157.34   0.001124    5.68  0.000111  (-0.009162 -0.004500 -0.002637)
135:   3164.88   0.006069   30.67  0.000598  (-0.018086 -0.007597 -0.014615)
136:   3490.05   0.078786  398.15  0.007045  ( 0.056541  0.040402  0.047068)
137:   3537.81   0.012386   62.59  0.001093  (-0.021085  0.010599  0.023143)
138:   3586.00   0.085786  433.53  0.007465  (-0.064053  0.000259 -0.057987)
139:   3651.84   0.009047   45.72  0.000773  (-0.020352 -0.011469  0.015080)
140:   3670.18   0.010525   53.19  0.000895  (-0.009056 -0.024316 -0.014887)

* The epsilon (eps) is given for a Dirac delta lineshape.
** The dipole moment derivative (T) already includes vibrational overlap.

The first frequency considered to be a vibration is 6
The total number of vibrations considered is 135


--------------------------
THERMOCHEMISTRY AT 298.15K
--------------------------

Temperature         ...   298.15 K
Pressure            ...     1.00 atm
Total Mass          ...   376.37 AMU
Quasi RRHO          ...     True
Cut-Off Frequency   ...     1.00 cm^-1

Throughout the following assumptions are being made:
  (1) The electronic state is orbitally nondegenerate
  (2) There are no thermally accessible electronically excited states
  (3) Hindered rotations indicated by low frequency modes are not
      treated as such but are treated as vibrations and this may
      cause some error
  (4) All equations used are the standard statistical mechanics
      equations for an ideal gas
  (5) All vibrations are strictly harmonic

freq.      18.86  E(vib)   ...       0.57 
freq.      36.41  E(vib)   ...       0.54 
freq.      56.84  E(vib)   ...       0.51 
freq.      65.33  E(vib)   ...       0.50 
freq.      82.92  E(vib)   ...       0.48 
freq.      88.76  E(vib)   ...       0.47 
freq.     114.16  E(vib)   ...       0.44 
freq.     117.12  E(vib)   ...       0.44 
freq.     122.45  E(vib)   ...       0.43 
freq.     124.40  E(vib)   ...       0.43 
freq.     137.06  E(vib)   ...       0.42 
freq.     153.74  E(vib)   ...       0.40 
freq.     162.72  E(vib)   ...       0.39 
freq.     173.91  E(vib)   ...       0.38 
freq.     197.38  E(vib)   ...       0.35 
freq.     205.17  E(vib)   ...       0.35 
freq.     225.36  E(vib)   ...       0.33 
freq.     250.14  E(vib)   ...       0.31 
freq.     255.69  E(vib)   ...       0.30 
freq.     278.26  E(vib)   ...       0.28 
freq.     291.26  E(vib)   ...       0.27 
freq.     296.84  E(vib)   ...       0.27 
freq.     309.94  E(vib)   ...       0.26 
freq.     323.23  E(vib)   ...       0.25 
freq.     336.46  E(vib)   ...       0.24 
freq.     351.24  E(vib)   ...       0.23 
freq.     367.07  E(vib)   ...       0.22 
freq.     380.61  E(vib)   ...       0.21 
freq.     408.68  E(vib)   ...       0.19 
freq.     437.81  E(vib)   ...       0.17 
freq.     444.74  E(vib)   ...       0.17 
freq.     464.99  E(vib)   ...       0.16 
freq.     498.69  E(vib)   ...       0.14 
freq.     507.64  E(vib)   ...       0.14 
freq.     513.23  E(vib)   ...       0.13 
freq.     518.04  E(vib)   ...       0.13 
freq.     532.43  E(vib)   ...       0.13 
freq.     548.78  E(vib)   ...       0.12 
freq.     563.38  E(vib)   ...       0.11 
freq.     564.75  E(vib)   ...       0.11 
freq.     588.61  E(vib)   ...       0.10 
freq.     599.23  E(vib)   ...       0.10 
freq.     603.68  E(vib)   ...       0.10 
freq.     637.71  E(vib)   ...       0.09 
freq.     659.32  E(vib)   ...       0.08 
freq.     668.21  E(vib)   ...       0.08 
freq.     688.08  E(vib)   ...       0.07 
freq.     700.15  E(vib)   ...       0.07 
freq.     715.99  E(vib)   ...       0.07 
freq.     745.88  E(vib)   ...       0.06 
freq.     755.87  E(vib)   ...       0.06 
freq.     768.42  E(vib)   ...       0.06 
freq.     775.32  E(vib)   ...       0.05 
freq.     794.37  E(vib)   ...       0.05 
freq.     813.27  E(vib)   ...       0.05 
freq.     836.73  E(vib)   ...       0.04 
freq.     864.61  E(vib)   ...       0.04 
freq.     866.19  E(vib)   ...       0.04 
freq.     869.63  E(vib)   ...       0.04 
freq.     884.46  E(vib)   ...       0.04 
freq.     917.71  E(vib)   ...       0.03 
freq.     924.96  E(vib)   ...       0.03 
freq.     979.89  E(vib)   ...       0.02 
freq.     995.08  E(vib)   ...       0.02 
freq.    1013.95  E(vib)   ...       0.02 
freq.    1023.28  E(vib)   ...       0.02 
freq.    1029.28  E(vib)   ...       0.02 
freq.    1035.02  E(vib)   ...       0.02 
freq.    1038.79  E(vib)   ...       0.02 
freq.    1047.07  E(vib)   ...       0.02 
freq.    1057.46  E(vib)   ...       0.02 
freq.    1076.48  E(vib)   ...       0.02 
freq.    1114.36  E(vib)   ...       0.01 
freq.    1127.41  E(vib)   ...       0.01 
freq.    1148.99  E(vib)   ...       0.01 
freq.    1163.99  E(vib)   ...       0.01 
freq.    1192.12  E(vib)   ...       0.01 
freq.    1227.43  E(vib)   ...       0.01 
freq.    1235.28  E(vib)   ...       0.01 
freq.    1250.58  E(vib)   ...       0.01 
freq.    1267.69  E(vib)   ...       0.01 
freq.    1273.82  E(vib)   ...       0.01 
freq.    1295.60  E(vib)   ...       0.01 
freq.    1311.69  E(vib)   ...       0.01 
freq.    1312.73  E(vib)   ...       0.01 
freq.    1317.51  E(vib)   ...       0.01 
freq.    1332.78  E(vib)   ...       0.01 
freq.    1346.37  E(vib)   ...       0.01 
freq.    1360.25  E(vib)   ...       0.01 
freq.    1369.52  E(vib)   ...       0.01 
freq.    1373.68  E(vib)   ...       0.01 
freq.    1392.81  E(vib)   ...       0.00 
freq.    1394.55  E(vib)   ...       0.00 
freq.    1398.10  E(vib)   ...       0.00 
freq.    1411.08  E(vib)   ...       0.00 
freq.    1416.04  E(vib)   ...       0.00 
freq.    1423.07  E(vib)   ...       0.00 
freq.    1423.32  E(vib)   ...       0.00 
freq.    1426.86  E(vib)   ...       0.00 
freq.    1433.30  E(vib)   ...       0.00 
freq.    1452.69  E(vib)   ...       0.00 
freq.    1470.87  E(vib)   ...       0.00 
freq.    1478.91  E(vib)   ...       0.00 
freq.    1487.20  E(vib)   ...       0.00 
freq.    1489.96  E(vib)   ...       0.00 
freq.    1496.59  E(vib)   ...       0.00 
freq.    1498.89  E(vib)   ...       0.00 
freq.    1500.57  E(vib)   ...       0.00 
freq.    1524.15  E(vib)   ...       0.00 
freq.    1530.41  E(vib)   ...       0.00 
freq.    1563.92  E(vib)   ...       0.00 
freq.    1586.66  E(vib)   ...       0.00 
freq.    1658.09  E(vib)   ...       0.00 
freq.    1728.00  E(vib)   ...       0.00 
freq.    1756.16  E(vib)   ...       0.00 
freq.    2967.48  E(vib)   ...       0.00 
freq.    2982.11  E(vib)   ...       0.00 
freq.    2999.34  E(vib)   ...       0.00 
freq.    3000.27  E(vib)   ...       0.00 
freq.    3009.20  E(vib)   ...       0.00 
freq.    3036.31  E(vib)   ...       0.00 
freq.    3047.82  E(vib)   ...       0.00 
freq.    3049.28  E(vib)   ...       0.00 
freq.    3066.75  E(vib)   ...       0.00 
freq.    3090.36  E(vib)   ...       0.00 
freq.    3096.88  E(vib)   ...       0.00 
freq.    3103.59  E(vib)   ...       0.00 
freq.    3155.69  E(vib)   ...       0.00 
freq.    3157.34  E(vib)   ...       0.00 
freq.    3164.88  E(vib)   ...       0.00 
freq.    3490.05  E(vib)   ...       0.00 
freq.    3537.81  E(vib)   ...       0.00 
freq.    3586.00  E(vib)   ...       0.00 
freq.    3651.84  E(vib)   ...       0.00 
freq.    3670.18  E(vib)   ...       0.00 

------------
INNER ENERGY
------------

The inner energy is: U= E(el) + E(ZPE) + E(vib) + E(rot) + E(trans)
    E(el)   - is the total energy from the electronic structure calculation
              = E(kin-el) + E(nuc-el) + E(el-el) + E(nuc-nuc)
    E(ZPE)  - the the zero temperature vibrational energy from the frequency calculation
    E(vib)  - the the finite temperature correction to E(ZPE) due to population
              of excited vibrational states
    E(rot)  - is the rotational thermal energy
    E(trans)- is the translational thermal energy

Summary of contributions to the inner energy U:
Electronic energy                ...  -1329.66137260 Eh
Zero point energy                ...      0.36981117 Eh     232.06 kcal/mol
Thermal vibrational correction   ...      0.02192642 Eh      13.76 kcal/mol
Thermal rotational correction    ...      0.00141627 Eh       0.89 kcal/mol
Thermal translational correction ...      0.00141627 Eh       0.89 kcal/mol
-----------------------------------------------------------------------
Total thermal energy                  -1329.26680247 Eh


Summary of corrections to the electronic energy:
(perhaps to be used in another calculation)
Total thermal correction                  0.02475896 Eh      15.54 kcal/mol
Non-thermal (ZPE) correction              0.36981117 Eh     232.06 kcal/mol
-----------------------------------------------------------------------
Total correction                          0.39457014 Eh     247.60 kcal/mol


--------
ENTHALPY
--------

The enthalpy is H = U + kB*T
                kB is Boltzmann's constant
Total thermal energy              ...  -1329.26680247 Eh 
Thermal Enthalpy correction       ...      0.00094421 Eh       0.59 kcal/mol
-----------------------------------------------------------------------
Total Enthalpy                    ...  -1329.26585826 Eh


Note: Only C1 symmetry has been detected, increase convergence thresholds 
      if your molecule has a higher symmetry. Symmetry factor of 1.0 is   
      used for the rotational entropy correction. 
 

Note: Rotational entropy computed according to Herzberg 
Infrared and Raman Spectra, Chapter V,1, Van Nostrand Reinhold, 1945 
Point Group:  C1, Symmetry Number:   1  
Rotational constants in cm-1:     0.008013     0.005594     0.003542 

Vibrational entropy computed according to the QRRHO of S. Grimme
Chem.Eur.J. 2012 18 9955 using a reference frequency of 100.0 cm-1


-------
ENTROPY
-------

The entropy contributions are T*S = T*(S(el)+S(vib)+S(rot)+S(trans))
     S(el)   - electronic entropy
     S(vib)  - vibrational entropy
     S(rot)  - rotational entropy
     S(trans)- translational entropy
The entropies will be listed as multiplied by the temperature to get
units of energy

Electronic entropy                ...      0.00000000 Eh      0.00 kcal/mol
Vibrational entropy               ...      0.03844179 Eh     24.12 kcal/mol
Rotational entropy                ...      0.01690179 Eh     10.61 kcal/mol
Translational entropy             ...      0.02074837 Eh     13.02 kcal/mol
-----------------------------------------------------------------------
Final entropy term                ...      0.07609194 Eh     47.75 kcal/mol

In case the symmetry of your molecule has not been determined correctly
or in case you have a reason to use a different symmetry number we print 
out the resulting rotational entropy values for sn=1,12:

 non-linear molecules -----------------------------------
|  sn= 1 | S(rot)=       0.01690179 Eh     10.61 kcal/mol|
|  sn= 2 | S(rot)=       0.01624733 Eh     10.20 kcal/mol|
|  sn= 3 | S(rot)=       0.01586450 Eh      9.96 kcal/mol|
|  sn= 4 | S(rot)=       0.01559287 Eh      9.78 kcal/mol|
|  sn= 5 | S(rot)=       0.01538219 Eh      9.65 kcal/mol|
|  sn= 6 | S(rot)=       0.01521004 Eh      9.54 kcal/mol|
|  sn= 7 | S(rot)=       0.01506450 Eh      9.45 kcal/mol|
|  sn= 8 | S(rot)=       0.01493842 Eh      9.37 kcal/mol|
|  sn= 9 | S(rot)=       0.01482721 Eh      9.30 kcal/mol|
|  sn=10 | S(rot)=       0.01472773 Eh      9.24 kcal/mol|
|  sn=11 | S(rot)=       0.01463774 Eh      9.19 kcal/mol|
|  sn=12 | S(rot)=       0.01455559 Eh      9.13 kcal/mol|
 linear molecules ---------------------------------------
|  Dinfh | S(rot)=       0.01065383 Eh      6.69 kcal/mol|
|  Cinfv | S(rot)=       0.01130828 Eh      7.10 kcal/mol|
 --------------------------------------------------------


-------------------
GIBBS FREE ENERGY
-------------------

The Gibbs free energy is G = H - T*S

Total enthalpy                    ...  -1329.26585826 Eh 
Total entropy correction          ...     -0.07609194 Eh    -47.75 kcal/mol
-----------------------------------------------------------------------
Final Gibbs free energy         ...  -1329.34195020 Eh

For completeness - the Gibbs free energy minus the electronic energy
G-E(el)                           ...      0.31942240 Eh    200.44 kcal/mol


Maximum memory used throughout the entire PROP-calculation: 166.9 MB

--------------------------------
SUGGESTED CITATIONS FOR THIS RUN
--------------------------------

Below you find a list of papers that are relevant to this ORCA run
We neither can nor want to force you to cite these papers, but we appreciate if you do
You receive ORCA, which is the product of decades of hard work by many enthusiastic individuals, for free
The only thing we kindly ask in return is that you cite our papers,
We deeply appreciate it, if you show your appreciation for ORCA by not just citing the generic ORCA reference.

Please note that relegating all ORCA citations to the supporting information does *not* help us.
SI sections are not indexed - citations you put there will not count into any citation statistics
But we need these citations in order to attract the funding resources that allow us to do what we are doing

Therefore, if you are a happy ORCA user, please consider citing a few of the papers listed below in the main body of your paper

In addition to the list printed below, the program has created the file m1_00_Vitamin_B2-GFN1_0002-B97-3C-TZ.bibtex that contains the list in bibtex format
You can import this file easily into all common literature databanks and citation aid programs


List of essential papers. We consider these as the minimum necessary citations

  1. Neese,F.
     Software update: the ORCA program system, version 5.0
     WIRES Comput. Molec. Sci., 2022 12(1)e1606
     doi.org/10.1002/wcms.1606

List of papers to cite with high priority. The work reported in these papers was absolutely
necessary for this run to complete.
Our perspective: the developers of density functionals and basis sets usually get cited in chemistry papers
Good! But without the algorithms to do something with them, the functionals or basis sets would not do anything.
Hence, in our opinion, the algorithm design and method developments papers are equally worthy of getting cited

  1. Neese,F.
     An improvement of the resolution of the identity approximation for the formation of the Coulomb matrix
     J. Comp. Chem., 2003 24(14)1740-1747
     doi.org/10.1002/jcc.10318
  2. Bykov,D.; Petrenko,T.; Izsak,R.; Kossmann,S.; Becker,U.; Valeev,E.; Neese,F.
     Efficient implementation of the analytic second derivatives of Hartree-Fock and hybrid DFT energies: a detailed analysis of different approximations
     Molec. Phys., 2015 113 1961-1977
     doi.org/10.1080/00268976.2015.1025114
  3. Neese,F.
     The SHARK Integral Generation and Digestion System
     J. Comp. Chem., 2022  1-16
     doi.org/10.1002/jcc.26942
  4. Grimme,S.; Antony,J.; Ehrlich,S.; Krieg,H.
     A consistent and accurate ab initio parametrization of density functional dispersion correction (DFT-D) for the 94 elements H-Pu
     J. Chem. Phys., 2010 132 154104
     doi.org/10.1063/1.3382344
  5. Grimme,S.; Ehrlich,S.; Goerigk,L.
     Effect of the damping function in dispersion corrected density functional theory
     J. Comput. Chem., 2011 32(7)1456-1465
     doi.org/10.1002/jcc.21759

List of suggested additional citations. These are papers that are important in the 'surrounding' of 
of this run, or papers that preceded the highly important papers. If you like your results we are grateful for a citation.

  1. Neese,F.
     The ORCA program system
     WIRES Comput. Molec. Sci., 2012 2(1)73-78
     doi.org/10.1002/wcms.81
  2. Neese,F.
     Software update: the ORCA program system, version 4.0
     WIRES Comput. Molec. Sci., 2018 8(1)1-6
     doi.org/10.1002/wcms.1327
  3. Neese,F.; Wennmohs,F.; Becker,U.; Riplinger,C.
     The ORCA quantum chemistry program package
     J. Chem. Phys., 2020 152 Art. No. L224108
     doi.org/10.1063/5.0004608

List of optional additional citations

  1. Neese,F.
     Approximate second-order SCF convergence for spin unrestricted wavefunctions
     Chem. Phys. Lett., 2000 325(1-3)93-98
     doi.org/10.1016/s0009-2614(00)00662-x

Timings for individual modules:

Sum of individual times          ...     1029.269 sec (=  17.154 min)
Startup calculation              ...       64.761 sec (=   1.079 min)   6.3 %
SCF iterations                   ...      228.500 sec (=   3.808 min)  22.2 %
Property integrals               ...      219.190 sec (=   3.653 min)  21.3 %
SCF Response                     ...      326.651 sec (=   5.444 min)  31.7 %
Property calculations            ...       80.303 sec (=   1.338 min)   7.8 %
SCF Gradient evaluation          ...      109.691 sec (=   1.828 min)  10.7 %
Geometry relaxation              ...        0.174 sec (=   0.003 min)   0.0 %
                             ****ORCA TERMINATED NORMALLY****
TOTAL RUN TIME: 0 days 0 hours 17 minutes 12 seconds 33 msec
