
                                 *****************
                                 * O   R   C   A *
                                 *****************

                                            #,                                       
                                            ###                                      
                                            ####                                     
                                            #####                                    
                                            ######                                   
                                           ########,                                 
                                     ,,################,,,,,                         
                               ,,#################################,,                 
                          ,,##########################################,,             
                       ,#########################################, ''#####,          
                    ,#############################################,,   '####,        
                  ,##################################################,,,,####,       
                ,###########''''           ''''###############################       
              ,#####''   ,,,,##########,,,,          '''####'''          '####       
            ,##' ,,,,###########################,,,                        '##       
           ' ,,###''''                  '''############,,,                           
         ,,##''                                '''############,,,,        ,,,,,,###''
      ,#''                                            '''#######################'''  
     '                                                          ''''####''''         
             ,#######,   #######,   ,#######,      ##                                
            ,#'     '#,  ##    ##  ,#'     '#,    #''#        ,####,   ,####,        
            ##       ##  ##   ,#'  ##            #'  '#       #'       #'  '#        
            ##       ##  #######   ##           ,######,      #####,   #    #        
            '#,     ,#'  ##    ##  '#,     ,#' ,#      #,     #,   #   #,  ,#        
             '#######'   ##     ##  '#######'  #'      '#     '####' # '####'        



                #########################################################
                #                        -***-                          #
                #          Department of theory and spectroscopy        #
                #                                                       #
                #                      Frank Neese                      #
                #                                                       #
                #     Directorship, Architecture, Infrastructure        #
                #                    SHARK, DRIVERS                     #
                #        Core code/Algorithms in most modules           #
                #                                                       #
                #        Max Planck Institute fuer Kohlenforschung      #
                #                Kaiser Wilhelm Platz 1                 #
                #                 D-45470 Muelheim/Ruhr                 #
                #                      Germany                          #
                #                                                       #
                #                  All rights reserved                  #
                #                        -***-                          #
                #########################################################


                         Program Version 6.0.1  -  RELEASE   -


 With contributions from (in alphabetic order):
[Max-Planck-Institut fuer Kohlenforschung]                               
  Daniel Aravena         : Magnetic Suceptibility                        
  Michael Atanasov       : Ab Initio Ligand Field Theory (pilot matlab implementation)
  Alexander A. Auer      : GIAO ZORA, VPT2 properties, NMR spectrum      
  Ute Becker             : All parallelization in ORCA, NUMFREQ, NUMCALC 
  Giovanni Bistoni       : ED, misc. LED, open-shell LED, HFLD           
  Martin Brehm           : Molecular dynamics                            
  Dmytro Bykov           : pre 5.0 version of the SCF Hessian            
  Marcos Casanova-Páez   : Triplet and SCS-CIS(D). UHF-(DLPNO)-IP/EA/STEOM-CCSD. UHF-CVS-IP/STEOM-CCSD   
  Vijay G. Chilkuri      : MRCI spin determinant printing, contributions to CSF-ICE 
  Pauline Colinet        : FMM embedding                                 
  Dipayan Datta          : RHF DLPNO-CCSD density                        
  Achintya Kumar Dutta   : EOM-CC, STEOM-CC                              
  Nicolas Foglia         : Exact transition moments, OPA infrastructure, MCD improvements    
  Dmitry Ganyushin       : Spin-Orbit,Spin-Spin,Magnetic field MRCI      
  Miquel Garcia-Rates    : C-PCM and meta-GGA Hessian, CCSD/C-PCM, Gaussian charge scheme 
  Tiago L. C. Gouveia    : GS-ROHF, GS-ROCIS                             
  Yang Guo               : DLPNO-NEVPT2, F12-NEVPT2, CIM, IAO-localization        
  Andreas Hansen         : Spin unrestricted coupled pair/coupled cluster methods 
  Ingolf Harden          : AUTO-CI MPn and infrastructure                
  Benjamin Helmich-Paris : MC-RPA, TRAH-(SCF,CASSCF), AVAS, COSX integrals, SCF dyn. polar. 
  Lee Huntington         : MR-EOM, pCC                                   
  Robert Izsak           : Overlap fitted RIJCOSX, COSX-SCS-MP3, EOM     
  Riya Kayal             : Wick's Theorem for AUTO-CI, AUTO-CI UHF-CCSDT 
  Emily Kempfer          : AUTO-CI, RHF CISDT and CCSDT                  
  Christian Kollmar      : KDIIS, OOCD, Brueckner-CCSD(T), CCSD density, CASPT2, CASPT2-K, improved NEVPT2 
  Axel Koslowski         : Symmetry handling                             
  Simone Kossmann        : meta-GGA functionals, TD-DFT gradient, OOMP2, (MP2 Hessian; deprecated post 5.0) 
  Lucas Lang             : DCDCAS                                        
  Marvin Lechner         : AUTO-CI (C++ implementation), FIC-MRCC        
  Spencer Leger          : CASSCF response                               
  Dagmar Lenk            : GEPOL surface, SMD, ORCA-2-JSON               
  Dimitrios Liakos       : Extrapolation schemes; Compound Job, initial MDCI parallelization 
  Dimitrios Manganas     : Further ROCIS development; embedding schemes. LFT, Crystal Embedding 
  Dimitrios Pantazis     : SARC Basis sets                               
  Anastasios Papadopoulos: AUTO-CI, single reference methods and gradients 
  Taras Petrenko         : pre 6.0 DFT Hessian and TD-DFT gradient, (ASA, deprecated), ECA, 1-Electron XAS/XES, NRVS 
  Peter Pinski           : DLPNO-MP2, DLPNO-MP2 Gradient                 
  Christoph Reimann      : Effective Core Potentials                     
  Marius Retegan         : Local ZFS, SOC                                
  Christoph Riplinger    : Optimizer, TS searches, QM/MM, DLPNO-CCSD(T), (RO)-DLPNO pert. Triples 
  Michael Roemelt        : Original ROCIS implementation                 
  Masaaki Saitow         : Open-shell DLPNO-CCSD energy and density      
  Barbara Sandhoefer     : DKH picture change effects                    
  Kantharuban Sivalingam : CASSCF convergence/infrastructure, NEVPT2 and variants, FIC-MRCI 
  Bernardo de Souza      : ESD, SOC TD-DFT                               
  Georgi L. Stoychev     : AutoAux, RI-MP2 NMR, DLPNO-MP2 response, X2C  
  Van Anh Tran           : RI-MP2 g-tensors                              
  Willem Van den Heuvel  : Paramagnetic NMR                              
  Zikuan Wang            : NOTCH, Electric field optimization            
  Frank Wennmohs         : Technical directorship and infrastructure     
  Hang Xu                : AUTO-CI-Response properties                   
                                                                         
[FACCTs GmbH]                                                            
  Markus Bursch, Miquel Garcia-Rates, Christoph Riplinger, Bernardo de Souza, Georgi L. Stoychev 
                                                                 
  APM, Basis sets (HGBS, AHGBS, def-TZVP (Ac-Lr), def2-XVPD (La-Lu)), CI-OPT, improved COSX, DLPNO-Multilevel,           
  DOCKER, DRACO, updates on ESD, GOAT, IRC, LR-CPCM, MBIS, meta-GGA TD-DFT gradient, ML-optimized integration grids, 
  MM, NACMEs, nearIR, NEB, NEB-TS, NL-DFT gradient (VV10), 2- and 3-layer-ONIOM, interface openCOSMO-RS, QMMM,   
  Crystal-QMMM, SF, symmetry and pop. for TD-DFT, r2SCAN hybrids, SOLVATOR                                   
                                                                         
[Other institutions]                                                     
  V. Asgeirsson          : NEB                                           
  Christoph Bannwarth    : sTDA-DFT, sTD-DFT, PBEh-3c, B97-3c, D3        
  Sebastian Ehlert       : rSCAN, r2SCAN, r2SCAN-3c, D4, dhf basis sets  
  Marvin Friede          : D4 for Fr, Ra, Ac-Lr                          
  Lars Goerigk           : TD-DFT with DH, B97 family of functionals     
  Stefan Grimme          : VdW corrections, initial TS optimization, DFT functionals, gCP, sTDA/sTD-DF 
  Waldemar Hujo          : DFT-NL                                        
  H. Jonsson             : NEB                                           
  Holger Kruse           : gCP                                           
  Marcel Mueller         : wB97X-3c, vDZP basis set                      
  Hagen Neugebauer       : wr2SCAN                                       
  Tobias Risthaus        : range-separated hybrid DFT                    
  Lukas Wittmann         : regularized MP2, r2SCAN double-hybrids, wr2SCAN        
                                                                         
We gratefully acknowledge several colleagues who have allowed us to      
interface, adapt or use parts of their codes:                            
  Ed Valeev, F. Pavosevic, A. Kumar             : LibInt (2-el integral package), F12 methods 
  Garnet Chan, S. Sharma, J. Yang, R. Olivares  : DMRG                   
  Ulf Ekstrom                                   : XCFun DFT Library      
  Mihaly Kallay                                 : mrcc  (arbitrary order and MRCC methods)
  Frank Weinhold                                : gennbo (NPA and NBO analysis)           
  Simon Mueller                                 : openCOSMO-RS                            
  Christopher J. Cramer and Donald G. Truhlar   : smd solvation model                     
  S Lehtola, MJT Oliveira, MAL Marques          : LibXC Library                           
  Liviu Ungur et al                             : ANISO software                          


 Your calculation uses the libint2 library for the computation of 2-el integrals
 For citations please refer to: http://libint.valeyev.net

 Your ORCA version has been built with support for libXC version: 6.2.2
 For citations please refer to: https://libxc.gitlab.io

 This ORCA versions uses:
   CBLAS   interface :  Fast vector & matrix operations
   LAPACKE interface :  Fast linear algebra routines
   SCALAPACK package :  Parallel linear algebra routines
   Shared memory     :  Shared parallel matrices
   BLAS/LAPACK       :  OpenBLAS 0.3.27  USE64BITINT DYNAMIC_ARCH NO_AFFINITY Zen SINGLE_THREADED
        Core in use  :  Zen
   Copyright (c) 2011-2014, The OpenBLAS Project


NOTE: MaxCore=6000 MB was set to SCF,MP2,MDCI,CIPSI,MRCI and CIS
      => If you want to overwrite this, your respective input block should be placed after the MaxCore statement
Your calculation utilizes the atom-pairwise dispersion correction
with the Becke-Johnson damping scheme (D3BJ)


Your calculation employs the composite approach B97-3c by Grimme and coworkers.
For the correct reference, please check the publication list of the Grimme group:
http://www.thch.uni-bonn.de/tc/index.php?section=publikationen&subsection=grimme#2017
   

XCFun DFT library Copyright 2009-2010 Ulf Ekstrom and contributors.
See http://admol.org/xcfun for more information.
This is free software; see the source code for copying conditions.
There is ABSOLUTELY NO WARRANTY; not even for MERCHANTABILITY or FITNESS FOR A PARTICULAR PURPOSE.
For details see the documentation.
Scientific users of this library should cite U. Ekstrom, L. Visscher, R. Bast, A. J. Thorvaldsen and K. Ruud;
J.Chem.Theor.Comp. 2010, DOI: 10.1021/ct100117s
XCFun Version 0.99 

================================================================================

----- Orbital basis set information -----
Your calculation utilizes the basis: def2-mTZVP
----- AuxJ basis set information -----
Your calculation utilizes the basis: def2-mTZVP/J
================================================================================
                                        WARNINGS
                       Please study these warnings very carefully!
================================================================================


WARNING: Geometry Optimization
  ===> : Switching off AutoStart
         For restart on a previous wavefunction, please use MOREAD

================================================================================
                                       INPUT FILE
================================================================================
NAME = m1_00_Vitamin_A-GFN2_000-B97-3C-TZ.inp
|  1> %pal nprocs 16 end
|  2> %MaxCore 6000
|  3> # put your comments here
|  4> ! B97-3C  OPT  FREQ DEFGRID3 NOTRAH
|  5> %scf MaxIter 800 end
|  6> %output
|  7> Print [P_Hirshfeld] 1
|  8> end
|  9> %geom
| 10> MaxIter 3000
| 11>  TolE 1e-6 #TolE 5e-6 Energy change (a.u.)
| 12>  TolRMSG 3e-5 #TolRMSG 1e-4 RMS gradient (a.u.)
| 13>  TolMaxG 1e-4 #TolMaxG 3e-3 Max. element of gradient (a.u.)
| 14>  TolRMSD 2e-3 #TolRMSD 2e-3 RMS displacement (a.u.)
| 15>  TolMaxD 4e-3 #TolMaxD 4e-3 Max. displacement (a.u.)
| 16> end
| 17> * xyz 0 1
| 18>  O 8.20207925304791 -0.06680011502089 1.26050621744771
| 19>  C -4.06380759201225 2.98263719428273 -2.00774413074855
| 20>  C -5.50013271437162 2.91217455674012 -1.46857160560852
| 21>  C -5.56715361098935 2.24976574820044 -0.10189164281805
| 22>  C -3.07005943475064 3.34473855365581 -0.90850612573495
| 23>  C -4.79065315821674 3.10531272770328 0.88679266384586
| 24>  C -3.40933030095123 3.42279721100180 0.38504311934028
| 25>  C -4.04487134247241 4.03300141243426 -3.12936024093695
| 26>  C -3.65238442558549 1.62585333077894 -2.59629199626468
| 27>  C -1.70489678717560 3.57667380876367 -1.37415875369402
| 28>  C -2.48245949845083 3.89099969015346 1.46956006594845
| 29>  C -0.61246086657409 3.02238328356367 -0.82372827491845
| 30>  C 0.74850120860986 3.21001927611452 -1.26362514347714
| 31>  C 0.99089110129231 4.15237964513379 -2.40513285568388
| 32>  C 1.73495932236910 2.52906160172836 -0.62712802416933
| 33>  C 3.13524214810834 2.55713488281768 -0.89629282162633
| 34>  C 4.02445438490576 1.82823753192886 -0.19003125564737
| 35>  C 5.45329226938883 1.79551185002421 -0.39399584668198
| 36>  C 6.03390225463130 2.64349185469949 -1.48916179373884
| 37>  C 6.21270439618764 1.01721197061794 0.39277473292069
| 38>  C 7.70202359928914 0.85525696813479 0.32023123080203
| 39>  H -6.12326273854052 2.37236502744622 -2.18490163535495
| 40>  H -5.89652507665444 3.92665914444229 -1.37964515621241
| 41>  H -5.13075552577463 1.25068767768300 -0.14633662824481
| 42>  H -6.60605102448489 2.14803768493181 0.21883629757134
| 43>  H -4.70809227944844 2.59505569520290 1.85035223723442
| 44>  H -5.33126406409514 4.04174197646674 1.06572734546734
| 45>  H -4.11512137326701 5.03697274968496 -2.71540497535374
| 46>  H -3.14231181132514 3.96272738995764 -3.73024910541803
| 47>  H -4.89522463881503 3.87412058642229 -3.79001107304422
| 48>  H -4.30425774508879 1.35847575015080 -3.42585131278552
| 49>  H -2.62715801001566 1.66554581146186 -2.95831591773544
| 50>  H -3.71103927786769 0.84417661557855 -1.84300355187501
| 51>  H -1.60113428943812 4.19884772044113 -2.25058495573392
| 52>  H -3.01821105460825 4.56789821733651 2.13532539245347
| 53>  H -1.61397878116483 4.40482351072671 1.06766008825810
| 54>  H -2.13720837648566 3.04895073323600 2.07009121859162
| 55>  H -0.74137511532576 2.34912708591229 0.01343557643417
| 56>  H 2.04795856399861 4.27016521913275 -2.61702163561966
| 57>  H 0.50142407476828 3.78258972988026 -3.30621714265144
| 58>  H 0.57698224607100 5.13337935687360 -2.17443970862083
| 59>  H 1.44077515677417 1.87712571918861 0.18774328968351
| 60>  H 3.48627855606937 3.18734163175947 -1.69898967889209
| 61>  H 3.65328005368864 1.20117387422233 0.61167875792346
| 62>  H 5.60682081321115 2.35941675240101 -2.45015839235285
| 63>  H 7.11221785967122 2.53677396595928 -1.54373983541688
| 64>  H 5.80047978763868 3.69220185328412 -1.31091836134189
| 65>  H 5.73913241203696 0.43904043502484 1.17609170304364
| 66>  H 8.20590088741714 1.80009512907786 0.55263406890989
| 67>  H 8.00318271374863 0.55388258417900 -0.69774601699687
| 68>  H 7.73651985103027 -0.90316461152629 1.14990358953285
| 69> *
| 70> 
| 71> 
| 72> 
| 73> 
| 74>                          ****END OF INPUT****
================================================================================

                       *****************************
                       * Geometry Optimization Run *
                       *****************************

Geometry optimization settings:
Update method            Update   .... BFGS
Choice of coordinates    CoordSys .... (2022) Redundant Internals
Initial Hessian          InHess   .... Almloef's Model
Max. no of cycles        MaxIter  .... 3000

Convergence Tolerances:
Energy Change            TolE     ....  1.0000e-06 Eh
Max. Gradient            TolMAXG  ....  1.0000e-04 Eh/bohr
RMS Gradient             TolRMSG  ....  3.0000e-05 Eh/bohr
Max. Displacement        TolMAXD  ....  4.0000e-03 bohr
RMS Displacement         TolRMSD  ....  2.0000e-03 bohr
Strict Convergence                .... False

------------------------------------------------------------------------------
                        ORCA OPTIMIZATION COORDINATE SETUP
------------------------------------------------------------------------------

The optimization will be done in redundant internal coordinates (2022)
Making redundant internal coordinates   ...  (2022 redundants) done
Evaluating the initial hessian          ...  (Almloef) done
Evaluating the coordinates              ...  done
Calculating the B-matrix                .... done
Calculating the G-matrix                .... done
Diagonalizing the G-matrix              .... done
Small eigenvalue found = 9.057e-04
Small eigenvalue found = 3.408e-03
Small eigenvalue found = 5.379e-03
Small eigenvalue found = 7.314e-03
Small eigenvalue found = 1.249e-02
Small eigenvalue found = 1.728e-02
Small eigenvalue found = 2.078e-02
Small eigenvalue found = 2.771e-02
The first mode is                       ....   94
The number of degrees of freedom        ....  147

    -----------------------------------------------------------------
                    Redundant Internal Coordinates


    -----------------------------------------------------------------
         Definition                    Initial Value    Approx d2E/dq
    -----------------------------------------------------------------
      1. B(C   2,C   1)                  1.5358         0.365690   
      2. B(C   3,C   2)                  1.5202         0.387230   
      3. B(C   4,C   1)                  1.5254         0.379881   
      4. B(C   5,C   3)                  1.5207         0.386614   
      5. B(C   6,C   5)                  1.5035         0.411727   
      6. B(C   6,C   4)                  1.3396         0.751943   
      7. B(C   7,C   1)                  1.5368         0.364405   
      8. B(C   8,C   1)                  1.5351         0.366646   
      9. B(C   9,C   4)                  1.4609         0.481488   
     10. B(C  10,C   6)                  1.5015         0.414820   
     11. B(C  11,C   9)                  1.3430         0.742569   
     12. B(C  12,C  11)                  1.4425         0.515119   
     13. B(C  13,C  12)                  1.4999         0.417184   
     14. B(C  14,C  12)                  1.3572         0.704862   
     15. B(C  15,C  14)                  1.4262         0.547007   
     16. B(C  16,C  15)                  1.3494         0.725377   
     17. B(C  17,C  16)                  1.4437         0.512949   
     18. B(C  18,C  17)                  1.5019         0.414269   
     19. B(C  19,C  17)                  1.3422         0.744769   
     20. B(C  20,C  19)                  1.4999         0.417323   
     21. B(C  20,O   0)                  1.4087         0.522495   
     22. B(H  21,C   2)                  1.0922         0.357254   
     23. B(H  22,C   2)                  1.0928         0.356414   
     24. B(H  23,C   3)                  1.0911         0.358602   
     25. B(H  24,C   3)                  1.0920         0.357429   
     26. B(H  25,C   5)                  1.0934         0.355569   
     27. B(H  26,C   5)                  1.0960         0.352272   
     28. B(H  27,C   7)                  1.0882         0.362444   
     29. B(H  28,C   7)                  1.0866         0.364675   
     30. B(H  29,C   7)                  1.0885         0.362107   
     31. B(H  30,C   8)                  1.0884         0.362233   
     32. B(H  31,C   8)                  1.0880         0.362767   
     33. B(H  32,C   8)                  1.0872         0.363886   
     34. B(H  33,C   9)                  1.0798         0.373835   
     35. B(H  34,C  10)                  1.0902         0.359879   
     36. B(H  35,C  10)                  1.0862         0.365183   
     37. B(H  36,C  10)                  1.0904         0.359626   
     38. B(H  37,C  11)                  1.0820         0.370832   
     39. B(H  38,C  13)                  1.0845         0.367436   
     40. B(H  39,C  13)                  1.0901         0.359994   
     41. B(H  40,C  13)                  1.0894         0.360829   
     42. B(H  41,C  14)                  1.0842         0.367799   
     43. B(H  42,C  15)                  1.0792         0.374651   
     44. B(H  43,C  16)                  1.0834         0.368961   
     45. B(H  44,C  18)                  1.0893         0.361005   
     46. B(H  45,C  18)                  1.0850         0.366833   
     47. B(H  46,C  18)                  1.0891         0.361347   
     48. B(H  47,C  19)                  1.0827         0.369951   
     49. B(H  48,C  20)                  1.0957         0.352600   
     50. B(H  49,C  20)                  1.1035         0.342626   
     51. B(H  50,O   0)                  0.9636         0.513165   
     52. A(C  20,O   0,H  50)          108.6636         0.358634   
     53. A(C   2,C   1,C   7)          107.4042         0.360499   
     54. A(C   2,C   1,C   4)          111.5407         0.363067   
     55. A(C   7,C   1,C   8)          108.7218         0.360659   
     56. A(C   4,C   1,C   7)          110.8342         0.362848   
     57. A(C   4,C   1,C   8)          108.1485         0.363228   
     58. A(C   2,C   1,C   8)          110.1634         0.360876   
     59. A(C   1,C   2,H  21)          109.0266         0.322765   
     60. A(H  21,C   2,H  22)          107.7735         0.290009   
     61. A(C   1,C   2,H  22)          108.9784         0.322641   
     62. A(C   1,C   2,C   3)          112.1375         0.364258   
     63. A(C   3,C   2,H  22)          108.3823         0.325687   
     64. A(C   3,C   2,H  21)          110.4336         0.325813   
     65. A(C   2,C   3,C   5)          108.4718         0.367746   
     66. A(C   5,C   3,H  23)          109.7188         0.325929   
     67. A(H  23,C   3,H  24)          107.8880         0.290309   
     68. A(C   5,C   3,H  24)          110.3190         0.325754   
     69. A(C   2,C   3,H  24)          110.2775         0.325839   
     70. A(C   2,C   3,H  23)          110.1646         0.326015   
     71. A(C   1,C   4,C   9)          114.6295         0.380674   
     72. A(C   6,C   4,C   9)          122.3576         0.429420   
     73. A(C   1,C   4,C   6)          123.0031         0.411638   
     74. A(H  25,C   5,H  26)          106.9830         0.289263   
     75. A(C   3,C   5,H  25)          110.4229         0.325475   
     76. A(C   6,C   5,H  26)          109.1012         0.328362   
     77. A(C   3,C   5,H  26)          109.5714         0.324976   
     78. A(C   6,C   5,H  25)          108.8592         0.328867   
     79. A(C   3,C   5,C   6)          111.7749         0.371643   
     80. A(C   4,C   6,C   5)          122.8625         0.417571   
     81. A(C   5,C   6,C  10)          113.0747         0.376184   
     82. A(C   4,C   6,C  10)          124.0076         0.418128   
     83. A(H  28,C   7,H  29)          107.6882         0.291672   
     84. A(H  27,C   7,H  29)          108.3673         0.291391   
     85. A(H  27,C   7,H  28)          108.8840         0.291715   
     86. A(C   1,C   7,H  28)          111.6942         0.323669   
     87. A(C   1,C   7,H  27)          110.6183         0.323343   
     88. A(C   1,C   7,H  29)          109.4868         0.323294   
     89. A(H  30,C   8,H  32)          108.6128         0.291588   
     90. A(C   1,C   8,H  32)          110.8167         0.323879   
     91. A(H  30,C   8,H  31)          108.6465         0.291447   
     92. A(C   1,C   8,H  31)          110.3576         0.323715   
     93. A(C   1,C   8,H  30)          110.4155         0.323637   
     94. A(H  31,C   8,H  32)          107.9165         0.291656   
     95. A(C  11,C   9,H  33)          119.4919         0.366247   
     96. A(C   4,C   9,H  33)          116.1022         0.340351   
     97. A(C   4,C   9,C  11)          124.3297         0.428454   
     98. A(H  34,C  10,H  36)          107.3836         0.290751   
     99. A(C   6,C  10,H  36)          110.6380         0.329891   
    100. A(H  34,C  10,H  35)          108.9765         0.291453   
    101. A(C   6,C  10,H  35)          111.9519         0.330729   
    102. A(C   6,C  10,H  34)          109.3510         0.329930   
    103. A(H  35,C  10,H  36)          108.4174         0.291420   
    104. A(C   9,C  11,C  12)          126.0693         0.433681   
    105. A(C  12,C  11,H  37)          115.4220         0.343756   
    106. A(C   9,C  11,H  37)          118.4900         0.365741   
    107. A(C  13,C  12,C  14)          123.6890         0.413764   
    108. A(C  11,C  12,C  14)          118.5197         0.429640   
    109. A(C  11,C  12,C  13)          117.7914         0.391511   
    110. A(H  39,C  13,H  40)          108.0537         0.290918   
    111. A(H  38,C  13,H  40)          108.2936         0.291856   
    112. A(C  12,C  13,H  40)          110.0705         0.330384   
    113. A(H  38,C  13,H  39)          108.2399         0.291749   
    114. A(C  12,C  13,H  39)          110.0841         0.330257   
    115. A(C  12,C  13,H  38)          111.9892         0.331377   
    116. A(C  12,C  14,C  15)          127.9702         0.434302   
    117. A(C  15,C  14,H  41)          114.8393         0.346763   
    118. A(C  12,C  14,H  41)          117.1904         0.361988   
    119. A(C  14,C  15,C  16)          122.5202         0.436552   
    120. A(C  16,C  15,H  42)          119.3657         0.364917   
    121. A(C  14,C  15,H  42)          118.1140         0.347842   
    122. A(C  15,C  16,C  17)          126.1926         0.431532   
    123. A(C  17,C  16,H  43)          115.4999         0.343221   
    124. A(C  15,C  16,H  43)          118.3075         0.363963   
    125. A(C  18,C  17,C  19)          122.4203         0.417316   
    126. A(C  16,C  17,C  19)          119.3609         0.433583   
    127. A(C  16,C  17,C  18)          118.2189         0.390743   
    128. A(H  45,C  18,H  46)          108.4195         0.291846   
    129. A(H  44,C  18,H  46)          108.1482         0.291112   
    130. A(C  17,C  18,H  46)          109.9680         0.330079   
    131. A(H  44,C  18,H  45)          108.6408         0.291803   
    132. A(C  17,C  18,H  45)          111.4306         0.330903   
    133. A(C  17,C  18,H  44)          110.1510         0.330028   
    134. A(C  17,C  19,C  20)          126.5904         0.417862   
    135. A(C  20,C  19,H  47)          114.3101         0.331770   
    136. A(C  17,C  19,H  47)          119.0973         0.365777   
    137. A(O   0,C  20,C  19)          113.0096         0.390012   
    138. A(H  48,C  20,H  49)          107.7971         0.287631   
    139. A(C  19,C  20,H  49)          110.1874         0.327590   
    140. A(O   0,C  20,H  49)          109.8831         0.337976   
    141. A(C  19,C  20,H  48)          110.6866         0.329145   
    142. A(O   0,C  20,H  48)          105.0466         0.339598   
    143. D(C   3,C   2,C   1,C   7)   -162.2468         0.010706   
    144. D(C   3,C   2,C   1,C   8)     79.4955         0.010706   
    145. D(H  21,C   2,C   1,C   8)    -43.1186         0.010706   
    146. D(C   3,C   2,C   1,C   4)    -40.6156         0.010706   
    147. D(H  21,C   2,C   1,C   7)     75.1391         0.010706   
    148. D(H  21,C   2,C   1,C   4)   -163.2297         0.010706   
    149. D(C   5,C   3,C   2,H  22)    -57.0245         0.011929   
    150. D(H  23,C   3,C   2,H  22)   -177.1325         0.011929   
    151. D(C   5,C   3,C   2,C   1)     63.3177         0.011929   
    152. D(H  23,C   3,C   2,C   1)    -56.7903         0.011929   
    153. D(H  23,C   3,C   2,H  21)     65.0230         0.011929   
    154. D(C   5,C   3,C   2,H  21)   -174.8691         0.011929   
    155. D(C   6,C   4,C   1,C   8)   -113.6704         0.010769   
    156. D(C   6,C   4,C   1,C   7)    127.2420         0.010769   
    157. D(C   6,C   4,C   1,C   2)      7.6196         0.010769   
    158. D(C   9,C   4,C   1,C   2)   -173.4966         0.010769   
    159. D(C   9,C   4,C   1,C   7)    -53.8741         0.010769   
    160. D(H  25,C   5,C   3,C   2)   -172.6986         0.011892   
    161. D(H  25,C   5,C   3,H  23)    -52.3133         0.011892   
    162. D(C   6,C   5,C   3,H  24)   -172.2412         0.011892   
    163. D(C   6,C   5,C   3,C   2)    -51.3552         0.011892   
    164. D(H  25,C   5,C   3,H  24)     66.4154         0.011892   
    165. D(C   6,C   5,C   3,H  23)     69.0301         0.011892   
    166. D(C   4,C   6,C   5,H  26)   -101.2466         0.012551   
    167. D(C   4,C   6,C   5,H  25)    142.3342         0.012551   
    168. D(C   4,C   6,C   5,C   3)     20.0904         0.012551   
    169. D(C  10,C   6,C   4,C   9)      6.7025         0.040343   
    170. D(C  10,C   6,C   4,C   1)   -174.4986         0.040343   
    171. D(C   5,C   6,C   4,C   9)   -176.1879         0.040343   
    172. D(C  10,C   6,C   5,C   3)   -162.5137         0.012551   
    173. D(C   5,C   6,C   4,C   1)      2.6111         0.040343   
    174. D(C  10,C   6,C   5,H  25)    -40.2699         0.012551   
    175. D(H  28,C   7,C   1,C   8)    -46.0762         0.010636   
    176. D(H  28,C   7,C   1,C   4)     72.6655         0.010636   
    177. D(H  28,C   7,C   1,C   2)   -165.2625         0.010636   
    178. D(H  27,C   7,C   1,C   8)   -167.5322         0.010636   
    179. D(H  27,C   7,C   1,C   4)    -48.7905         0.010636   
    180. D(H  27,C   7,C   1,C   2)     73.2814         0.010636   
    181. D(H  31,C   8,C   1,C   7)     63.8694         0.010759   
    182. D(H  31,C   8,C   1,C   4)    -56.5472         0.010759   
    183. D(H  31,C   8,C   1,C   2)   -178.6861         0.010759   
    184. D(H  30,C   8,C   1,C   7)    -56.2626         0.010759   
    185. D(H  30,C   8,C   1,C   4)   -176.6792         0.010759   
    186. D(H  30,C   8,C   1,C   2)     61.1819         0.010759   
    187. D(H  33,C   9,C   4,C   6)   -135.2845         0.015784   
    188. D(H  33,C   9,C   4,C   1)     45.8236         0.015784   
    189. D(C  11,C   9,C   4,C   6)     47.9155         0.015784   
    190. D(C  11,C   9,C   4,C   1)   -130.9764         0.015784   
    191. D(H  36,C  10,C   6,C   4)   -105.6685         0.012734   
    192. D(H  35,C  10,C   6,C   5)   -161.9791         0.012734   
    193. D(H  35,C  10,C   6,C   4)     15.3821         0.012734   
    194. D(H  34,C  10,C   6,C   5)    -41.1058         0.012734   
    195. D(H  34,C  10,C   6,C   4)    136.2555         0.012734   
    196. D(H  37,C  11,C   9,H  33)   -175.9694         0.039249   
    197. D(H  37,C  11,C   9,C   4)      0.7291         0.039249   
    198. D(C  12,C  11,C   9,H  33)      2.3809         0.039249   
    199. D(C  12,C  11,C   9,C   4)    179.0794         0.039249   
    200. D(C  14,C  12,C  11,H  37)      1.0983         0.018089   
    201. D(C  14,C  12,C  11,C   9)   -177.2963         0.018089   
    202. D(C  13,C  12,C  11,H  37)   -178.9088         0.018089   
    203. D(C  13,C  12,C  11,C   9)      2.6966         0.018089   
    204. D(H  38,C  13,C  12,C  14)     -3.5847         0.012875   
    205. D(H  38,C  13,C  12,C  11)    176.4228         0.012875   
    206. D(H  40,C  13,C  12,C  11)     55.8964         0.012875   
    207. D(H  39,C  13,C  12,C  14)    116.8831         0.012875   
    208. D(H  39,C  13,C  12,C  11)    -63.1094         0.012875   
    209. D(H  41,C  14,C  12,C  13)    179.8214         0.035033   
    210. D(H  41,C  14,C  12,C  11)     -0.1861         0.035033   
    211. D(C  15,C  14,C  12,C  13)     -0.3050         0.035033   
    212. D(C  15,C  14,C  12,C  11)    179.6875         0.035033   
    213. D(H  42,C  15,C  14,H  41)    179.8548         0.020462   
    214. D(H  42,C  15,C  14,C  12)     -0.0212         0.020462   
    215. D(C  16,C  15,C  14,H  41)     -0.0220         0.020462   
    216. D(C  16,C  15,C  14,C  12)   -179.8981         0.020462   
    217. D(H  43,C  16,C  15,H  42)   -179.9715         0.037290   
    218. D(H  43,C  16,C  15,C  14)     -0.0961         0.037290   
    219. D(C  17,C  16,C  15,H  42)      0.0801         0.037290   
    220. D(C  17,C  16,C  15,C  14)    179.9555         0.037290   
    221. D(C  19,C  17,C  16,H  43)      0.0381         0.017935   
    222. D(C  19,C  17,C  16,C  15)    179.9877         0.017935   
    223. D(C  18,C  17,C  16,H  43)   -179.9348         0.017935   
    224. D(C  18,C  17,C  16,C  15)      0.0149         0.017935   
    225. D(H  46,C  18,C  17,C  16)     59.6427         0.012701   
    226. D(H  45,C  18,C  17,C  19)     -0.0797         0.012701   
    227. D(H  45,C  18,C  17,C  16)    179.8922         0.012701   
    228. D(H  44,C  18,C  17,C  19)    120.5707         0.012701   
    229. D(H  44,C  18,C  17,C  16)    -59.4573         0.012701   
    230. D(H  47,C  19,C  17,C  18)    179.0842         0.039504   
    231. D(H  47,C  19,C  17,C  16)     -0.8874         0.039504   
    232. D(C  20,C  19,C  17,C  18)     -0.3453         0.039504   
    233. D(C  20,C  19,C  17,C  16)    179.6830         0.039504   
    234. D(H  49,C  20,C  19,C  17)    -54.8674         0.012883   
    235. D(H  48,C  20,C  19,H  47)   -115.1813         0.012883   
    236. D(H  48,C  20,C  19,C  17)     64.2717         0.012883   
    237. D(O   0,C  20,C  19,H  47)      2.3244         0.012883   
    238. D(O   0,C  20,C  19,C  17)   -178.2225         0.012883   
    239. D(H  49,C  20,O   0,H  50)    -68.9570         0.021653   
    240. D(H  48,C  20,O   0,H  50)    175.3351         0.021653   
    241. D(C  19,C  20,O   0,H  50)     54.5662         0.021653   
    -----------------------------------------------------------------

Number of atoms                         .... 51
Number of degrees of freedom            .... 241


         *************************************************************
         *                GEOMETRY OPTIMIZATION CYCLE   1            *
         *************************************************************
---------------------------------
CARTESIAN COORDINATES (ANGSTROEM)
---------------------------------
  O      8.202079   -0.066800    1.260506
  C     -4.063808    2.982637   -2.007744
  C     -5.500133    2.912175   -1.468572
  C     -5.567154    2.249766   -0.101892
  C     -3.070059    3.344739   -0.908506
  C     -4.790653    3.105313    0.886793
  C     -3.409330    3.422797    0.385043
  C     -4.044871    4.033001   -3.129360
  C     -3.652384    1.625853   -2.596292
  C     -1.704897    3.576674   -1.374159
  C     -2.482459    3.891000    1.469560
  C     -0.612461    3.022383   -0.823728
  C      0.748501    3.210019   -1.263625
  C      0.990891    4.152380   -2.405133
  C      1.734959    2.529062   -0.627128
  C      3.135242    2.557135   -0.896293
  C      4.024454    1.828238   -0.190031
  C      5.453292    1.795512   -0.393996
  C      6.033902    2.643492   -1.489162
  C      6.212704    1.017212    0.392775
  C      7.702024    0.855257    0.320231
  H     -6.123263    2.372365   -2.184902
  H     -5.896525    3.926659   -1.379645
  H     -5.130756    1.250688   -0.146337
  H     -6.606051    2.148038    0.218836
  H     -4.708092    2.595056    1.850352
  H     -5.331264    4.041742    1.065727
  H     -4.115121    5.036973   -2.715405
  H     -3.142312    3.962727   -3.730249
  H     -4.895225    3.874121   -3.790011
  H     -4.304258    1.358476   -3.425851
  H     -2.627158    1.665546   -2.958316
  H     -3.711039    0.844177   -1.843004
  H     -1.601134    4.198848   -2.250585
  H     -3.018211    4.567898    2.135325
  H     -1.613979    4.404824    1.067660
  H     -2.137208    3.048951    2.070091
  H     -0.741375    2.349127    0.013436
  H      2.047959    4.270165   -2.617022
  H      0.501424    3.782590   -3.306217
  H      0.576982    5.133379   -2.174440
  H      1.440775    1.877126    0.187743
  H      3.486279    3.187342   -1.698990
  H      3.653280    1.201174    0.611679
  H      5.606821    2.359417   -2.450158
  H      7.112218    2.536774   -1.543740
  H      5.800480    3.692202   -1.310918
  H      5.739132    0.439040    1.176092
  H      8.205901    1.800095    0.552634
  H      8.003183    0.553883   -0.697746
  H      7.736520   -0.903165    1.149904

----------------------------
CARTESIAN COORDINATES (A.U.)
----------------------------
  NO LB      ZA    FRAG     MASS         X           Y           Z
   0 O     8.0000    0    15.999   15.499684   -0.126234    2.382012
   1 C     6.0000    0    12.011   -7.679483    5.636367   -3.794087
   2 C     6.0000    0    12.011  -10.393745    5.503212   -2.775198
   3 C     6.0000    0    12.011  -10.520396    4.251441   -0.192547
   4 C     6.0000    0    12.011   -5.801572    6.320640   -1.716828
   5 C     6.0000    0    12.011   -9.053022    5.868191    1.675795
   6 C     6.0000    0    12.011   -6.442701    6.468149    0.727626
   7 C     6.0000    0    12.011   -7.643699    7.621268   -5.913634
   8 C     6.0000    0    12.011   -6.902006    3.072418   -4.906281
   9 C     6.0000    0    12.011   -3.221788    6.758934   -2.596784
  10 C     6.0000    0    12.011   -4.691169    7.352924    2.777066
  11 C     6.0000    0    12.011   -1.157383    5.711477   -1.556621
  12 C     6.0000    0    12.011    1.414462    6.066057   -2.387905
  13 C     6.0000    0    12.011    1.872513    7.846860   -4.545042
  14 C     6.0000    0    12.011    3.278598    4.779234   -1.185100
  15 C     6.0000    0    12.011    5.924749    4.832285   -1.693748
  16 C     6.0000    0    12.011    7.605117    3.454868   -0.359107
  17 C     6.0000    0    12.011   10.305229    3.393026   -0.744544
  18 C     6.0000    0    12.011   11.402423    4.995476   -2.814108
  19 C     6.0000    0    12.011   11.740310    1.922252    0.742237
  20 C     6.0000    0    12.011   14.554715    1.616201    0.605149
  21 H     1.0000    0     1.008  -11.571290    4.483120   -4.128866
  22 H     1.0000    0     1.008  -11.142818    7.420310   -2.607152
  23 H     1.0000    0     1.008   -9.695723    2.363457   -0.276536
  24 H     1.0000    0     1.008  -12.483627    4.059203    0.413541
  25 H     1.0000    0     1.008   -8.897005    4.903945    3.496659
  26 H     1.0000    0     1.008  -10.074629    7.637785    2.013933
  27 H     1.0000    0     1.008   -7.776452    9.518499   -5.131372
  28 H     1.0000    0     1.008   -5.938109    7.488470   -7.049149
  29 H     1.0000    0     1.008   -9.250634    7.321027   -7.162083
  30 H     1.0000    0     1.008   -8.133868    2.567147   -6.473921
  31 H     1.0000    0     1.008   -4.964609    3.147425   -5.590407
  32 H     1.0000    0     1.008   -7.012848    1.595263   -3.482772
  33 H     1.0000    0     1.008   -3.025705    7.934672   -4.252989
  34 H     1.0000    0     1.008   -5.703592    8.632077    4.035180
  35 H     1.0000    0     1.008   -3.049978    8.323910    2.017585
  36 H     1.0000    0     1.008   -4.038739    5.761682    3.911905
  37 H     1.0000    0     1.008   -1.400996    4.439207    0.025390
  38 H     1.0000    0     1.008    3.870081    8.069443   -4.945454
  39 H     1.0000    0     1.008    0.947554    7.148059   -6.247845
  40 H     1.0000    0     1.008    1.090338    9.700681   -4.109096
  41 H     1.0000    0     1.008    2.722670    3.547254    0.354783
  42 H     1.0000    0     1.008    6.588112    6.023203   -3.210625
  43 H     1.0000    0     1.008    6.903699    2.269890    1.155905
  44 H     1.0000    0     1.008   10.595356    4.458651   -4.630128
  45 H     1.0000    0     1.008   13.440144    4.793808   -2.917246
  46 H     1.0000    0     1.008   10.961318    6.977250   -2.477277
  47 H     1.0000    0     1.008   10.845389    0.829666    2.222491
  48 H     1.0000    0     1.008   15.506905    3.401687    1.044327
  49 H     1.0000    0     1.008   15.123824    1.046686   -1.318549
  50 H     1.0000    0     1.008   14.619904   -1.706734    2.173003

--------------------------------
INTERNAL COORDINATES (ANGSTROEM)
--------------------------------
 O      0   0   0     0.000000000000     0.00000000     0.00000000
 C      1   0   0    13.054980212075     0.00000000     0.00000000
 C      2   1   0     1.535806580360   141.26897001     0.00000000
 C      3   2   1     1.520227401051   112.13751094   358.64460166
 C      2   1   4     1.525443209755    42.52139086    61.35839075
 C      4   3   2     1.520661121202   108.47183271    63.31766441
 C      5   2   1     1.339577367707   123.00306377   223.48181748
 C      2   1   5     1.536764871720   109.31679073   100.10108927
 C      2   1   5     1.535096109089    68.75956447   203.31959679
 C      5   2   1     1.460922786057   114.62953346    42.36569935
 C      7   5   2     1.501492608537   124.00761980   185.50142220
 C     10   5   2     1.342992158917   124.32974424   229.02362215
 C     12  10   5     1.442544380862   126.06929849   179.07935439
 C     13  12  10     1.499945259735   117.79136497     2.69661726
 C     13  12  10     1.357177787688   118.51966809   182.70371664
 C     15  13  12     1.426194162574   127.97022737   179.68745446
 C     16  15  13     1.349368426258   122.52022927   180.10191708
 C     17  16  15     1.443693258551   126.19263210   179.95548641
 C     18  17  16     1.501854352088   118.21887052     0.00000000
 C     18  17  16     1.342186807245   119.36086471   179.98771601
 C      1   2   3     1.408673834486    49.19220486   200.97682125
 H      3   2   1     1.092160275076   109.02664543   236.03048878
 H      3   2   1     1.092800895389   108.97836271   118.64008961
 H      4   3   2     1.091135022120   110.16455361   303.20970024
 H      4   3   2     1.092026943976   110.27747424   184.22936073
 H      6   4   3     1.093446655941   110.42292898   187.30138815
 H      6   4   3     1.095982440453   109.57135292    69.70949456
 H      8   2   1     1.088233648971   110.61832960   265.81642314
 H      8   2   1     1.086563193265   111.69424539    27.27245858
 H      8   2   1     1.088486732780   109.48679452   146.45834514
 H      9   2   1     1.088392509589   110.41549496   199.67379181
 H      9   2   1     1.087991735227   110.35758383   319.80578730
 H      9   2   1     1.087153328300   110.81672766    79.28546194
 H     10   5   2     1.079810131426   116.10220087    45.82361040
 H     11   7   5     1.090167333946   109.35100569   136.25546070
 H     11   7   5     1.086184729663   111.95190230    15.38211970
 H     11   7   5     1.090358862191   110.63802348   254.33152910
 H     12  10   5     1.082005593894   118.49004631     0.72909419
 H     14  13  12     1.084509989450   111.98924796   176.42284588
 H     14  13  12     1.090080475789   110.08406236   296.89060929
 H     14  13  12     1.089449541267   110.07052843    55.89638930
 H     15  13  12     1.084241659581   117.19037166   359.81390124
 H     16  15  13     1.079217008201   118.11397697     0.00000000
 H     17  16  15     1.083382739770   118.30747910   359.90386952
 H     19  18  17     1.089317072252   110.15099766   300.54268939
 H     19  18  17     1.084957148685   111.43061589   179.89223558
 H     19  18  17     1.089058965539   109.96796962    59.64272610
 H     20  18  17     1.082653326058   119.09729896   359.11256506
 H     21   1   2     1.095729232532   105.04657261   128.33664220
 H     21   1   2     1.103540216106   109.88307606   244.04456758
 H      1   2   3     0.963578782001    73.74323794    67.17468292

---------------------------
INTERNAL COORDINATES (A.U.)
---------------------------
 O      0   0   0     0.000000000000     0.00000000     0.00000000
 C      1   0   0    24.670337284584     0.00000000     0.00000000
 C      2   1   0     2.902253831554   141.26897001     0.00000000
 C      3   2   1     2.872813449270   112.13751094   358.64460166
 C      2   1   4     2.882669899286    42.52139086    61.35839075
 C      4   3   2     2.873633061574   108.47183271    63.31766441
 C      5   2   1     2.531434360166   123.00306377   223.48181748
 C      2   1   5     2.904064739782   109.31679073   100.10108927
 C      2   1   5     2.900911235426    68.75956447   203.31959679
 C      5   2   1     2.760743968453   114.62953346    42.36569935
 C      7   5   2     2.837409822242   124.00761980   185.50142220
 C     10   5   2     2.537887380356   124.32974424   229.02362215
 C     12  10   5     2.726013815857   126.06929849   179.07935439
 C     13  12  10     2.834485756772   117.79136497     2.69661726
 C     13  12  10     2.564694333772   118.51966809   182.70371664
 C     15  13  12     2.695116381063   127.97022737   179.68745446
 C     16  15  13     2.549936779388   122.52022927   180.10191708
 C     17  16  15     2.728184880050   126.19263210   179.95548641
 C     18  17  16     2.838093418484   118.21887052     0.00000000
 C     18  17  16     2.536365486254   119.36086471   179.98771601
 C      1   2   3     2.662007759199    49.19220486   200.97682125
 H      3   2   1     2.063883814241   109.02664543   236.03048878
 H      3   2   1     2.065094411190   108.97836271   118.64008961
 H      4   3   2     2.061946366938   110.16455361   303.20970024
 H      4   3   2     2.063631854978   110.27747424   184.22936073
 H      6   4   3     2.066314721780   110.42292898   187.30138815
 H      6   4   3     2.071106660043   109.57135292    69.70949456
 H      8   2   1     2.056463566272   110.61832960   265.81642314
 H      8   2   1     2.053306862469   111.69424539    27.27245858
 H      8   2   1     2.056941825362   109.48679452   146.45834514
 H      9   2   1     2.056763769334   110.41549496   199.67379181
 H      9   2   1     2.056006415549   110.35758383   319.80578730
 H      9   2   1     2.054422056068   110.81672766    79.28546194
 H     10   5   2     2.040545425029   116.10220087    45.82361040
 H     11   7   5     2.060117701306   109.35100569   136.25546070
 H     11   7   5     2.052591669911   111.95190230    15.38211970
 H     11   7   5     2.060479637235   110.63802348   254.33152910
 H     12  10   5     2.044694247831   118.49004631     0.72909419
 H     14  13  12     2.049426869563   111.98924796   176.42284588
 H     14  13  12     2.059953563177   110.08406236   296.89060929
 H     14  13  12     2.058761269720   110.07052843    55.89638930
 H     15  13  12     2.048919799595   117.19037166   359.81390124
 H     16  15  13     2.039424584570   118.11397697     0.00000000
 H     17  16  15     2.047296676382   118.30747910   359.90386952
 H     19  18  17     2.058510939561   110.15099766   300.54268939
 H     19  18  17     2.050271878055   111.43061589   179.89223558
 H     19  18  17     2.058023188560   109.96796962    59.64272610
 H     20  18  17     2.045918284229   119.09729896   359.11256506
 H     21   1   2     2.070628166418   105.04657261   128.33664220
 H     21   1   2     2.085388786208   109.88307606   244.04456758
 H      1   2   3     1.820900006440    73.74323794    67.17468292

---------------------
BASIS SET INFORMATION
---------------------
There are 3 groups of distinct atoms

 Group   1 Type O   : 11s6p2d contracted to 5s3p2d pattern {62111/411/11}
 Group   2 Type C   : 11s6p1d contracted to 5s3p1d pattern {62111/411/1}
 Group   3 Type H   : 5s contracted to 3s pattern {311}

Atom   0O    basis set group =>   1
Atom   1C    basis set group =>   2
Atom   2C    basis set group =>   2
Atom   3C    basis set group =>   2
Atom   4C    basis set group =>   2
Atom   5C    basis set group =>   2
Atom   6C    basis set group =>   2
Atom   7C    basis set group =>   2
Atom   8C    basis set group =>   2
Atom   9C    basis set group =>   2
Atom  10C    basis set group =>   2
Atom  11C    basis set group =>   2
Atom  12C    basis set group =>   2
Atom  13C    basis set group =>   2
Atom  14C    basis set group =>   2
Atom  15C    basis set group =>   2
Atom  16C    basis set group =>   2
Atom  17C    basis set group =>   2
Atom  18C    basis set group =>   2
Atom  19C    basis set group =>   2
Atom  20C    basis set group =>   2
Atom  21H    basis set group =>   3
Atom  22H    basis set group =>   3
Atom  23H    basis set group =>   3
Atom  24H    basis set group =>   3
Atom  25H    basis set group =>   3
Atom  26H    basis set group =>   3
Atom  27H    basis set group =>   3
Atom  28H    basis set group =>   3
Atom  29H    basis set group =>   3
Atom  30H    basis set group =>   3
Atom  31H    basis set group =>   3
Atom  32H    basis set group =>   3
Atom  33H    basis set group =>   3
Atom  34H    basis set group =>   3
Atom  35H    basis set group =>   3
Atom  36H    basis set group =>   3
Atom  37H    basis set group =>   3
Atom  38H    basis set group =>   3
Atom  39H    basis set group =>   3
Atom  40H    basis set group =>   3
Atom  41H    basis set group =>   3
Atom  42H    basis set group =>   3
Atom  43H    basis set group =>   3
Atom  44H    basis set group =>   3
Atom  45H    basis set group =>   3
Atom  46H    basis set group =>   3
Atom  47H    basis set group =>   3
Atom  48H    basis set group =>   3
Atom  49H    basis set group =>   3
Atom  50H    basis set group =>   3
---------------------------------
AUXILIARY/J BASIS SET INFORMATION
---------------------------------
There are 3 groups of distinct atoms

 Group   1 Type O   : 8s3p3d contracted to 6s3p3d pattern {311111/111/111}
 Group   2 Type C   : 8s3p3d contracted to 6s3p3d pattern {311111/111/111}
 Group   3 Type H   : 5s2p contracted to 3s1p pattern {311/2}

Atom   0O    basis set group =>   1
Atom   1C    basis set group =>   2
Atom   2C    basis set group =>   2
Atom   3C    basis set group =>   2
Atom   4C    basis set group =>   2
Atom   5C    basis set group =>   2
Atom   6C    basis set group =>   2
Atom   7C    basis set group =>   2
Atom   8C    basis set group =>   2
Atom   9C    basis set group =>   2
Atom  10C    basis set group =>   2
Atom  11C    basis set group =>   2
Atom  12C    basis set group =>   2
Atom  13C    basis set group =>   2
Atom  14C    basis set group =>   2
Atom  15C    basis set group =>   2
Atom  16C    basis set group =>   2
Atom  17C    basis set group =>   2
Atom  18C    basis set group =>   2
Atom  19C    basis set group =>   2
Atom  20C    basis set group =>   2
Atom  21H    basis set group =>   3
Atom  22H    basis set group =>   3
Atom  23H    basis set group =>   3
Atom  24H    basis set group =>   3
Atom  25H    basis set group =>   3
Atom  26H    basis set group =>   3
Atom  27H    basis set group =>   3
Atom  28H    basis set group =>   3
Atom  29H    basis set group =>   3
Atom  30H    basis set group =>   3
Atom  31H    basis set group =>   3
Atom  32H    basis set group =>   3
Atom  33H    basis set group =>   3
Atom  34H    basis set group =>   3
Atom  35H    basis set group =>   3
Atom  36H    basis set group =>   3
Atom  37H    basis set group =>   3
Atom  38H    basis set group =>   3
Atom  39H    basis set group =>   3
Atom  40H    basis set group =>   3
Atom  41H    basis set group =>   3
Atom  42H    basis set group =>   3
Atom  43H    basis set group =>   3
Atom  44H    basis set group =>   3
Atom  45H    basis set group =>   3
Atom  46H    basis set group =>   3
Atom  47H    basis set group =>   3
Atom  48H    basis set group =>   3
Atom  49H    basis set group =>   3
Atom  50H    basis set group =>   3


           ************************************************************
           *        Program running with 16 parallel MPI-processes    *
           *              working on a common directory               *
           ************************************************************
------------------------------------------------------------------------------
                             ORCA STARTUP CALCULATIONS
                           -- RI-GTO INTEGRALS CHOSEN --
------------------------------------------------------------------------------
------------------------------------------------------------------------------
                   ___                                                        
                  /   \      - P O W E R E D   B Y -                         
                 /     \                                                     
                 |  |  |   _    _      __       _____    __    __             
                 |  |  |  | |  | |    /  \     |  _  \  |  |  /  |          
                  \  \/   | |  | |   /    \    | | | |  |  | /  /          
                 / \  \   | |__| |  /  /\  \   | |_| |  |  |/  /          
                |  |  |   |  __  | /  /__\  \  |    /   |      \           
                |  |  |   | |  | | |   __   |  |    \   |  |\   \          
                \     /   | |  | | |  |  |  |  | |\  \  |  | \   \       
                 \___/    |_|  |_| |__|  |__|  |_| \__\ |__|  \__/        
                                                                              
                      - O R C A' S   B I G   F R I E N D -                    
                                      &                                       
                       - I N T E G R A L  F E E D E R -                       
                                                                              
 v1 FN, 2020, v2 2021, v3 2022-2024                                           
------------------------------------------------------------------------------


----------------------
SHARK INTEGRAL PACKAGE
----------------------

Number of atoms                             ...     51
Number of basis functions                   ...    494
Number of shells                            ...    280
Maximum angular momentum                    ...      2
Integral batch strategy                     ... SHARK/LIBINT Hybrid
RI-J (if used) integral strategy            ... SPLIT-RIJ (Revised 2003 algorithm where possible)
Printlevel                                  ...      1
Contraction scheme used                     ... SEGMENTED contraction
Prescreening option                         ... SCHWARTZ
   Thresh                                   ... 2.500e-11
   Tcut                                     ... 2.500e-12
   Tpresel                                  ... 2.500e-12 
Coulomb Range Separation                    ... NOT USED
Exchange Range Separation                   ... NOT USED
Multipole approximations                    ... NOT USED
Finite Nucleus Model                        ... NOT USED
CABS basis                                  ... NOT available
Auxiliary Coulomb fitting basis             ... AVAILABLE
   # of basis functions in Aux-J            ...    810
   # of shells in Aux-J                     ...    372
   Maximum angular momentum in Aux-J        ...      2
Auxiliary J/K fitting basis                 ... NOT available
Auxiliary Correlation fitting basis         ... NOT available
Auxiliary 'external' fitting basis          ... NOT available

Checking pre-screening integrals            ... done (  0.0 sec) Dimension = 280
Check shell pair data                       ... done (  0.0 sec)
Shell pair information
Shell pair cut-off parameter TPreSel        ...   2.5e-12
Total number of shell pairs                 ...     39340
Shell pairs after pre-screening             ...     24316
Total number of primitive shell pairs       ...    140737
Primitive shell pairs kept                  ...     55793
          la=0 lb=0:  11265 shell pairs
          la=1 lb=0:   8258 shell pairs
          la=1 lb=1:   1504 shell pairs
          la=2 lb=0:   2298 shell pairs
          la=2 lb=1:    868 shell pairs
          la=2 lb=2:    123 shell pairs

Calculating one electron integrals          ... done (  0.0 sec)
Calculating RI/J V-Matrix + Cholesky decomp.... done (  0.0 sec)
Calculating Nuclear repulsion               ... done (  0.0 sec) ENN=   1565.205580980900 Eh

Diagonalization of the overlap matrix:
Smallest eigenvalue                        ... 2.013e-05
Time for diagonalization                   ...    0.023 sec
Threshold for overlap eigenvalues          ... 1.000e-07
Number of eigenvalues below threshold      ... 0
Time for construction of square roots      ...    0.013 sec
Total time needed                          ...    0.038 sec

-------------------
DFT GRID GENERATION
-------------------

General Integration Accuracy     IntAcc      ... 4.959
Radial Grid Type                 RadialGrid  ... OptM3 with GC (2021)
Angular Grid (max. ang.)         AngularGrid ... 6 (Lebedev-590)
Angular grid pruning method      GridPruning ... 4 (adaptive)
Weight generation scheme         WeightScheme... mBecke (2022)
Basis function cutoff            BFCut       ... 1.0000e-11
Integration weight cutoff        WCut        ... 1.0000e-14
Partially contracted basis set               ... off
Rotationally invariant grid construction     ... off
Angular grids for H and He will be reduced by one unit
Diffuse basis detected: some atoms will have their outermost
                        angular grid increased by 1.

Total number of grid points                  ...   552499
Total number of batches                      ...     8656
Average number of points per batch           ...       63
Average number of grid points per atom       ...    10833
Initializing property integral containers    ... done (  0.0 sec)

SHARK setup successfully completed in   4.2 seconds

Maximum memory used throughout the entire STARTUP-calculation: 123.9 MB


           ************************************************************
           *        Program running with 16 parallel MPI-processes    *
           *              working on a common directory               *
           ************************************************************
-------------------------------------------------------------------------------
                                 ORCA GUESS
                   Start orbitals & Density for SCF / CASSCF
-------------------------------------------------------------------------------

------------
SCF SETTINGS
------------
Hamiltonian:
 Density Functional     Method          .... DFT(GTOs)
 Exchange Functional    Exchange        .... B973C
 Correlation Functional Correlation     .... B973C
 Gradients option       PostSCFGGA      .... off
 RI-approximation to the Coulomb term is turned on
   Number of AuxJ basis functions       .... 810


General Settings:
 Integral files         IntName         .... m1_00_Vitamin_A-GFN2_000-B97-3C-TZ
 Hartree-Fock type      HFTyp           .... RHF
 Total Charge           Charge          ....    0
 Multiplicity           Mult            ....    1
 Number of Electrons    NEL             ....  158
 Basis Dimension        Dim             ....  494
 Nuclear Repulsion      ENuc            ....   1565.2055809809 Eh

Convergence Acceleration:
 AO-DIIS                CNVDIIS         .... on
   Start iteration      DIISMaxIt       ....    12
   Startup error        DIISStart       ....  0.200000
   # of expansion vecs  DIISMaxEq       ....     5
   Bias factor          DIISBfac        ....   1.050
   Max. coefficient     DIISMaxC        ....  10.000
 MO-DIIS                CNVKDIIS        .... off
 Trust-Rad. Augm. Hess. CNVTRAH         .... off
 SOSCF                  CNVSOSCF        .... on
   Start iteration      SOSCFMaxIt      ....   150
   Startup grad/error   SOSCFStart      ....  0.003300
   Hessian update       SOSCFHessUp     .... L-BFGS
 Level Shifting         CNVShift        .... on
   Level shift para.    LevelShift      ....    0.2500
   Turn off err/grad.   ShiftErr        ....    0.0010
 Zerner damping         CNVZerner       .... off
 Static damping         CNVDamp         .... on
   Fraction old density DampFac         ....    0.7000
   Max. Damping (<1)    DampMax         ....    0.9800
   Min. Damping (>=0)   DampMin         ....    0.0000
   Turn off err/grad.   DampErr         ....    0.1000

SCF Procedure:
 Maximum # iterations   MaxIter         ....   800
 SCF integral mode      SCFMode         .... Direct
   Integral package                     .... SHARK and LIBINT hybrid scheme
 Reset frequency        DirectResetFreq ....    20
 Integral Threshold     Thresh          ....  2.500e-11 Eh
 Primitive CutOff       TCut            ....  2.500e-12 Eh

Convergence Tolerance:
 Convergence Check Mode ConvCheckMode   .... Total+1el-Energy
 Convergence forced     ConvForced      .... 0
 Energy Change          TolE            ....  1.000e-08 Eh
 1-El. energy change                    ....  1.000e-05 Eh
 Orbital Gradient       TolG            ....  1.000e-05
 Orbital Rotation angle TolX            ....  1.000e-05
 DIIS Error             TolErr          ....  5.000e-07

--------------------------------
INITIAL GUESS: MINIMAL BASIS EHT
--------------------------------
The minimal basis has 135 functions
EHT matrix was diagonalized
Basis set overlap was calculated now projecting the orbitals
Using GuessMode=FMatrix for the initial guess
C*T matrix was formed
Effective Fockian was calculated
Effective Fockian was diagonalized
Initial density was built
                      ------------------
                      INITIAL GUESS DONE
                      ------------------
             **** ENERGY FILE WAS UPDATED (m1_00_Vitamin_A-GFN2_000-B97-3C-TZ.en.tmp) ****
Finished Guess after   0.3 sec
Maximum memory used throughout the entire GUESS-calculation: 41.5 MB


           ************************************************************
           *        Program running with 16 parallel MPI-processes    *
           *              working on a common directory               *
           ************************************************************

-------------------------------------------------------------------------------------------
                                      ORCA LEAN-SCF
                              memory conserving SCF solver
-------------------------------------------------------------------------------------------

----------------------------------------D-I-I-S--------------------------------------------
Iteration    Energy (Eh)           Delta-E    RMSDP     MaxDP     DIISErr   Damp  Time(sec)
-------------------------------------------------------------------------------------------
               ***  Starting incremental Fock matrix formation  ***
    1    -852.6607040208882609     0.00e+00  4.11e-03  1.29e-01  4.72e-01  0.700   0.8
Warning: op=0 Small HOMO/LUMO gap (   0.080) - skipping pre-diagonalization
         Will do a full diagonalization
    2    -853.2853869142218173    -6.25e-01  4.39e-03  4.53e-01  3.32e-01  0.700   0.9
    3    -853.7061773155101037    -4.21e-01  2.56e-03  1.64e-01  2.32e-01  0.700   0.8
                               ***Turning on AO-DIIS***
    4    -853.9986597557549430    -2.92e-01  1.78e-03  9.79e-02  1.62e-01  0.700   0.8
    5    -854.1998253852575544    -2.01e-01  1.24e-03  5.33e-02  1.13e-01  0.700   0.9
    6    -854.3445210079435128    -1.45e-01  8.73e-04  3.30e-02  7.92e-02  0.700   0.8
    7    -854.4467514434345503    -1.02e-01  2.08e-03  7.79e-02  5.54e-02  0.000   0.8
    8    -854.6835095421156439    -2.37e-01  4.77e-04  6.64e-02  2.12e-02  0.000   0.9
    9    -854.6839220501801719    -4.13e-04  6.00e-05  3.63e-03  1.43e-02  0.000   0.8
                              *** Initializing SOSCF ***
---------------------------------------S-O-S-C-F--------------------------------------
Iteration    Energy (Eh)           Delta-E    RMSDP     MaxDP     MaxGrad    Time(sec)
--------------------------------------------------------------------------------------
   10    -854.6841605531953974    -2.39e-04  4.00e-05  4.38e-03  2.31e-03     0.9
               *** Restarting incremental Fock matrix formation ***
   11    -854.6841744780272165    -1.39e-05  7.12e-05  1.13e-02  1.18e-04     0.9
   12    -854.6841717711449746     2.71e-06  3.62e-05  5.55e-03  2.57e-04     0.8
   13    -854.6841754966185363    -3.73e-06  8.29e-06  7.96e-04  4.05e-05     0.7
   14    -854.6841752755217385     2.21e-07  5.65e-06  7.52e-04  1.00e-04     0.7
   15    -854.6841755250688948    -2.50e-07  4.03e-06  3.29e-04  4.72e-06     0.7
   16    -854.6841755164541610     8.61e-09  2.50e-06  2.11e-04  1.32e-05     0.7
                 **** Energy Check signals convergence ****

               *****************************************************
               *                     SUCCESS                       *
               *           SCF CONVERGED AFTER  16 CYCLES          *
               *****************************************************

             **** ENERGY FILE WAS UPDATED (m1_00_Vitamin_A-GFN2_000-B97-3C-TZ.en.tmp) ****

----------------
TOTAL SCF ENERGY
----------------

Total Energy       :       -854.68417551645416 Eh          -23257.13879 eV

Components:
Nuclear Repulsion  :       1565.20558098089987 Eh           42591.40916 eV
Electronic Energy  :      -2419.88975649735403 Eh          -65848.54795 eV
One Electron Energy:      -4264.61774215457353 Eh         -116046.14844 eV
Two Electron Energy:       1844.72798565721951 Eh           50197.60049 eV

Virial components:
Potential Energy   :      -1706.30782539033680 Eh          -46430.99644 eV
Kinetic Energy     :        851.62364987388275 Eh           23173.85765 eV
Virial Ratio       :          2.00359375369980

DFT components:
N(Alpha)           :       78.999988089663 electrons
N(Beta)            :       78.999988089663 electrons
N(Total)           :      157.999976179326 electrons
E(XC)              :     -127.759456149285 Eh       

---------------
SCF CONVERGENCE
---------------

  Last Energy change         ...   -8.6147e-09  Tolerance :   1.0000e-08
  Last MAX-Density change    ...    2.1114e-04  Tolerance :   1.0000e-07
  Last RMS-Density change    ...    2.4979e-06  Tolerance :   5.0000e-09
  Last DIIS Error            ...    2.3141e-03  Tolerance :   5.0000e-07
  Last Orbital Gradient      ...    1.3154e-05  Tolerance :   1.0000e-05
  Last Orbital Rotation      ...    2.0603e-05  Tolerance :   1.0000e-05


----------------
ORBITAL ENERGIES
----------------

  NO   OCC          E(Eh)            E(eV) 
   0   2.0000     -18.744652      -510.0679 
   1   2.0000      -9.941936      -270.5338 
   2   2.0000      -9.901873      -269.4437 
   3   2.0000      -9.899364      -269.3754 
   4   2.0000      -9.899009      -269.3657 
   5   2.0000      -9.891238      -269.1543 
   6   2.0000      -9.890568      -269.1360 
   7   2.0000      -9.890236      -269.1270 
   8   2.0000      -9.890159      -269.1249 
   9   2.0000      -9.888277      -269.0737 
  10   2.0000      -9.887230      -269.0452 
  11   2.0000      -9.885941      -269.0101 
  12   2.0000      -9.884250      -268.9641 
  13   2.0000      -9.884213      -268.9631 
  14   2.0000      -9.883175      -268.9349 
  15   2.0000      -9.882375      -268.9131 
  16   2.0000      -9.880009      -268.8487 
  17   2.0000      -9.878775      -268.8151 
  18   2.0000      -9.875153      -268.7166 
  19   2.0000      -9.874714      -268.7046 
  20   2.0000      -9.870608      -268.5929 
  21   2.0000      -0.946589       -25.7580 
  22   2.0000      -0.783232       -21.3128 
  23   2.0000      -0.767281       -20.8788 
  24   2.0000      -0.752473       -20.4758 
  25   2.0000      -0.719734       -19.5849 
  26   2.0000      -0.714905       -19.4536 
  27   2.0000      -0.694418       -18.8961 
  28   2.0000      -0.662521       -18.0281 
  29   2.0000      -0.653052       -17.7704 
  30   2.0000      -0.630812       -17.1653 
  31   2.0000      -0.620977       -16.8976 
  32   2.0000      -0.619278       -16.8514 
  33   2.0000      -0.610125       -16.6023 
  34   2.0000      -0.601369       -16.3641 
  35   2.0000      -0.560661       -15.2564 
  36   2.0000      -0.534181       -14.5358 
  37   2.0000      -0.514081       -13.9888 
  38   2.0000      -0.499467       -13.5912 
  39   2.0000      -0.486731       -13.2446 
  40   2.0000      -0.471975       -12.8431 
  41   2.0000      -0.461943       -12.5701 
  42   2.0000      -0.450930       -12.2704 
  43   2.0000      -0.434268       -11.8170 
  44   2.0000      -0.425326       -11.5737 
  45   2.0000      -0.417924       -11.3723 
  46   2.0000      -0.406166       -11.0523 
  47   2.0000      -0.402130       -10.9425 
  48   2.0000      -0.395348       -10.7580 
  49   2.0000      -0.388988       -10.5849 
  50   2.0000      -0.381900       -10.3920 
  51   2.0000      -0.379712       -10.3325 
  52   2.0000      -0.378006       -10.2861 
  53   2.0000      -0.376919       -10.2565 
  54   2.0000      -0.375305       -10.2126 
  55   2.0000      -0.356026        -9.6880 
  56   2.0000      -0.354024        -9.6335 
  57   2.0000      -0.350400        -9.5349 
  58   2.0000      -0.348265        -9.4768 
  59   2.0000      -0.343500        -9.3471 
  60   2.0000      -0.339926        -9.2499 
  61   2.0000      -0.327752        -8.9186 
  62   2.0000      -0.326745        -8.8912 
  63   2.0000      -0.324930        -8.8418 
  64   2.0000      -0.311966        -8.4890 
  65   2.0000      -0.309436        -8.4202 
  66   2.0000      -0.305805        -8.3214 
  67   2.0000      -0.300202        -8.1689 
  68   2.0000      -0.299193        -8.1415 
  69   2.0000      -0.296106        -8.0575 
  70   2.0000      -0.292259        -7.9528 
  71   2.0000      -0.279932        -7.6173 
  72   2.0000      -0.271453        -7.3866 
  73   2.0000      -0.261585        -7.1181 
  74   2.0000      -0.253789        -6.9060 
  75   2.0000      -0.236736        -6.4419 
  76   2.0000      -0.226518        -6.1639 
  77   2.0000      -0.200293        -5.4503 
  78   2.0000      -0.165011        -4.4902 
  79   0.0000      -0.081151        -2.2082 
  80   0.0000      -0.025308        -0.6887 
  81   0.0000       0.007985         0.2173 
  82   0.0000       0.019791         0.5385 
  83   0.0000       0.021960         0.5976 
  84   0.0000       0.028318         0.7706 
  85   0.0000       0.035955         0.9784 
  86   0.0000       0.038057         1.0356 
  87   0.0000       0.043915         1.1950 
  88   0.0000       0.049344         1.3427 
  89   0.0000       0.052257         1.4220 
*Only the first 10 virtual orbitals were printed.

                    ********************************
                    * MULLIKEN POPULATION ANALYSIS *
                    ********************************

-----------------------
MULLIKEN ATOMIC CHARGES
-----------------------
   0 O :   -0.558068
   1 C :    0.067428
   2 C :   -0.324447
   3 C :   -0.338941
   4 C :    0.248241
   5 C :   -0.319511
   6 C :    0.010389
   7 C :   -0.544205
   8 C :   -0.549931
   9 C :   -0.403958
  10 C :   -0.603305
  11 C :   -0.304749
  12 C :    0.266823
  13 C :   -0.576331
  14 C :   -0.226980
  15 C :   -0.100407
  16 C :   -0.295467
  17 C :    0.254434
  18 C :   -0.605119
  19 C :   -0.255129
  20 C :   -0.288257
  21 H :    0.175916
  22 H :    0.171463
  23 H :    0.160523
  24 H :    0.171725
  25 H :    0.175636
  26 H :    0.167685
  27 H :    0.179151
  28 H :    0.168595
  29 H :    0.177888
  30 H :    0.168680
  31 H :    0.184476
  32 H :    0.166137
  33 H :    0.193454
  34 H :    0.165188
  35 H :    0.213129
  36 H :    0.173518
  37 H :    0.162409
  38 H :    0.173917
  39 H :    0.180073
  40 H :    0.181306
  41 H :    0.131431
  42 H :    0.153756
  43 H :    0.136077
  44 H :    0.183871
  45 H :    0.194488
  46 H :    0.185239
  47 H :    0.171295
  48 H :    0.189183
  49 H :    0.174770
  50 H :    0.416509
Sum of atomic charges:   -0.0000000

--------------------------------
MULLIKEN REDUCED ORBITAL CHARGES
--------------------------------
  0 O s       :     3.810979  s :     3.810979
      pz      :     1.674518  p :     4.717826
      px      :     1.745826
      py      :     1.297482
      dz2     :     0.002212  d :     0.029264
      dxz     :     0.006666
      dyz     :     0.003592
      dx2y2   :     0.003538
      dxy     :     0.013255

  1 C s       :     2.912002  s :     2.912002
      pz      :     0.985815  p :     2.963894
      px      :     1.019781
      py      :     0.958297
      dz2     :     0.007992  d :     0.056676
      dxz     :     0.013262
      dyz     :     0.013674
      dx2y2   :     0.013701
      dxy     :     0.008048

  2 C s       :     3.170116  s :     3.170116
      pz      :     1.029931  p :     3.109192
      px      :     0.988494
      py      :     1.090767
      dz2     :     0.009232  d :     0.045139
      dxz     :     0.010692
      dyz     :     0.007975
      dx2y2   :     0.009004
      dxy     :     0.008237

  3 C s       :     3.204376  s :     3.204376
      pz      :     0.951224  p :     3.089760
      px      :     1.127970
      py      :     1.010565
      dz2     :     0.011281  d :     0.044805
      dxz     :     0.007809
      dyz     :     0.008229
      dx2y2   :     0.010895
      dxy     :     0.006591

  4 C s       :     3.116518  s :     3.116518
      pz      :     0.805642  p :     2.586335
      px      :     0.830380
      py      :     0.950313
      dz2     :     0.012610  d :     0.048906
      dxz     :     0.016130
      dyz     :     0.008595
      dx2y2   :     0.006473
      dxy     :     0.005097

  5 C s       :     3.135311  s :     3.135311
      pz      :     1.079377  p :     3.138047
      px      :     0.966064
      py      :     1.092606
      dz2     :     0.010279  d :     0.046153
      dxz     :     0.007236
      dyz     :     0.009054
      dx2y2   :     0.008845
      dxy     :     0.010740

  6 C s       :     3.175721  s :     3.175721
      pz      :     0.865313  p :     2.766203
      px      :     0.951770
      py      :     0.949119
      dz2     :     0.012464  d :     0.047687
      dxz     :     0.015103
      dyz     :     0.009643
      dx2y2   :     0.005321
      dxy     :     0.005156

  7 C s       :     3.269051  s :     3.269051
      pz      :     1.055720  p :     3.237207
      px      :     1.139026
      py      :     1.042462
      dz2     :     0.003579  d :     0.037947
      dxz     :     0.013115
      dyz     :     0.008086
      dx2y2   :     0.011697
      dxy     :     0.001470

  8 C s       :     3.262293  s :     3.262293
      pz      :     1.114253  p :     3.249767
      px      :     1.130086
      py      :     1.005428
      dz2     :     0.003804  d :     0.037870
      dxz     :     0.008527
      dyz     :     0.011249
      dx2y2   :     0.010934
      dxy     :     0.003356

  9 C s       :     3.300762  s :     3.300762
      pz      :     1.012326  p :     3.061300
      px      :     1.054455
      py      :     0.994519
      dz2     :     0.006775  d :     0.041896
      dxz     :     0.009521
      dyz     :     0.007036
      dx2y2   :     0.009471
      dxy     :     0.009094

 10 C s       :     3.324229  s :     3.324229
      pz      :     1.063604  p :     3.240559
      px      :     1.072427
      py      :     1.104528
      dz2     :     0.003572  d :     0.038517
      dxz     :     0.010049
      dyz     :     0.011776
      dx2y2   :     0.004232
      dxy     :     0.008888

 11 C s       :     3.302861  s :     3.302861
      pz      :     0.935883  p :     2.958894
      px      :     1.043801
      py      :     0.979210
      dz2     :     0.006094  d :     0.042994
      dxz     :     0.010098
      dyz     :     0.007216
      dx2y2   :     0.010411
      dxy     :     0.009174

 12 C s       :     3.168479  s :     3.168479
      pz      :     0.753666  p :     2.515433
      px      :     0.945901
      py      :     0.815866
      dz2     :     0.008691  d :     0.049265
      dxz     :     0.012351
      dyz     :     0.006550
      dx2y2   :     0.011133
      dxy     :     0.010540

 13 C s       :     3.275892  s :     3.275892
      pz      :     1.032685  p :     3.262436
      px      :     1.171407
      py      :     1.058344
      dz2     :     0.008899  d :     0.038004
      dxz     :     0.006314
      dyz     :     0.008132
      dx2y2   :     0.009758
      dxy     :     0.004901

 14 C s       :     3.264615  s :     3.264615
      pz      :     0.913449  p :     2.919865
      px      :     1.059177
      py      :     0.947239
      dz2     :     0.005735  d :     0.042500
      dxz     :     0.010301
      dyz     :     0.006779
      dx2y2   :     0.010087
      dxy     :     0.009598

 15 C s       :     3.065991  s :     3.065991
      pz      :     0.957139  p :     2.992148
      px      :     1.031475
      py      :     1.003535
      dz2     :     0.005849  d :     0.042267
      dxz     :     0.010619
      dyz     :     0.006819
      dx2y2   :     0.009501
      dxy     :     0.009479

 16 C s       :     3.306531  s :     3.306531
      pz      :     0.958229  p :     2.946676
      px      :     1.001121
      py      :     0.987326
      dz2     :     0.005983  d :     0.042261
      dxz     :     0.010439
      dyz     :     0.006644
      dx2y2   :     0.009788
      dxy     :     0.009406

 17 C s       :     3.109453  s :     3.109453
      pz      :     0.806427  p :     2.586088
      px      :     0.912682
      py      :     0.866979
      dz2     :     0.009787  d :     0.050025
      dxz     :     0.011697
      dyz     :     0.006636
      dx2y2   :     0.011999
      dxy     :     0.009906

 18 C s       :     3.305950  s :     3.305950
      pz      :     1.038335  p :     3.261260
      px      :     1.149004
      py      :     1.073920
      dz2     :     0.010512  d :     0.037909
      dxz     :     0.005887
      dyz     :     0.006131
      dx2y2   :     0.012046
      dxy     :     0.003331

 19 C s       :     3.212483  s :     3.212483
      pz      :     0.996742  p :     3.004143
      px      :     0.975152
      py      :     1.032249
      dz2     :     0.005729  d :     0.038503
      dxz     :     0.009552
[...]
114:   1504.84   0.001870    9.45  0.000388  (-0.014625 -0.011950  0.005579)
115:   1513.79   0.000899    4.54  0.000185  ( 0.006711 -0.007125 -0.009464)
116:   1514.52   0.000688    3.48  0.000142  (-0.009353 -0.004907  0.005497)
117:   1520.87   0.001383    6.99  0.000284  (-0.012356  0.002483 -0.011177)
118:   1598.62   0.001871    9.45  0.000365  (-0.011217  0.010110 -0.011712)
119:   1607.56   0.004285   21.66  0.000832  (-0.026712  0.010827 -0.001065)
120:   1642.57   0.001649    8.33  0.000313  ( 0.013247  0.002952 -0.011364)
121:   1652.66   0.000514    2.60  0.000097  ( 0.006115 -0.007501  0.001825)
122:   1659.44   0.003326   16.81  0.000625  ( 0.024978 -0.001147 -0.000462)
123:   2941.14   0.011222   56.71  0.001191  (-0.020663  0.017366  0.021498)
124:   2973.95   0.007871   39.77  0.000826  ( 0.011308 -0.009919 -0.024487)
125:   2974.95   0.008202   41.45  0.000860  (-0.021740  0.016341 -0.010987)
126:   2979.40   0.007527   38.04  0.000788  ( 0.001380 -0.000519 -0.028039)
127:   2983.72   0.015205   76.84  0.001590  (-0.034778 -0.019441 -0.001677)
128:   2991.37   0.004626   23.38  0.000483  (-0.000521  0.020603  0.007607)
129:   2997.04   0.019627   99.19  0.002044  (-0.008858  0.021102 -0.038986)
130:   2997.14   0.001781    9.00  0.000185  (-0.012817  0.004605  0.000022)
131:   2998.89   0.008862   44.79  0.000922  ( 0.024759  0.015955 -0.007389)
132:   3002.59   0.005304   26.80  0.000551  ( 0.009578  0.014919 -0.015391)
133:   3014.82   0.007787   39.35  0.000806  (-0.016305  0.022379  0.006273)
134:   3020.15   0.006231   31.49  0.000644  ( 0.007878 -0.002792  0.023957)
135:   3020.93   0.016460   83.18  0.001700  (-0.035605 -0.018169 -0.010128)
136:   3035.34   0.013112   66.26  0.001348  (-0.023918  0.024950  0.012386)
137:   3042.76   0.003526   17.82  0.000362  ( 0.001063  0.016113  0.010045)
138:   3050.41   0.003533   17.86  0.000361  (-0.002885 -0.014293 -0.012200)
139:   3060.08   0.002599   13.13  0.000265  (-0.007561 -0.013711 -0.004455)
140:   3065.06   0.019386   97.97  0.001974  ( 0.037084  0.002405  0.024347)
141:   3073.93   0.004584   23.17  0.000465  (-0.007902  0.020042 -0.001120)
142:   3076.24   0.001236    6.25  0.000125  (-0.006428 -0.005128  0.007603)
143:   3077.01   0.010257   51.84  0.001040  (-0.027296 -0.000329  0.017178)
144:   3082.35   0.000067    0.34  0.000007  ( 0.002125 -0.000530  0.001394)
145:   3089.58   0.007542   38.11  0.000762  ( 0.009203  0.013993 -0.021938)
146:   3100.34   0.005036   25.45  0.000507  (-0.017198 -0.010183  0.010365)
147:   3105.21   0.000306    1.55  0.000031  (-0.004945 -0.002432 -0.000609)
148:   3108.58   0.001832    9.26  0.000184  ( 0.012942  0.000434 -0.004032)
149:   3111.28   0.008812   44.53  0.000884  ( 0.029348 -0.000666 -0.004700)
150:   3121.43   0.005978   30.21  0.000598  (-0.012992 -0.007756  0.019202)
151:   3131.31   0.007925   40.05  0.000790  ( 0.021981  0.008414 -0.015355)
152:   3729.08   0.001884    9.52  0.000158  ( 0.000304  0.010730  0.006516)

* The epsilon (eps) is given for a Dirac delta lineshape.
** The dipole moment derivative (T) already includes vibrational overlap.

The first frequency considered to be a vibration is 6
The total number of vibrations considered is 147


--------------------------
THERMOCHEMISTRY AT 298.15K
--------------------------

Temperature         ...   298.15 K
Pressure            ...     1.00 atm
Total Mass          ...   286.46 AMU
Quasi RRHO          ...     True
Cut-Off Frequency   ...     1.00 cm^-1

Throughout the following assumptions are being made:
  (1) The electronic state is orbitally nondegenerate
  (2) There are no thermally accessible electronically excited states
  (3) Hindered rotations indicated by low frequency modes are not
      treated as such but are treated as vibrations and this may
      cause some error
  (4) All equations used are the standard statistical mechanics
      equations for an ideal gas
  (5) All vibrations are strictly harmonic

freq.      16.92  E(vib)   ...       0.57 
freq.      28.18  E(vib)   ...       0.55 
freq.      33.53  E(vib)   ...       0.55 
freq.      44.21  E(vib)   ...       0.53 
freq.      51.41  E(vib)   ...       0.52 
freq.      67.99  E(vib)   ...       0.50 
freq.      81.54  E(vib)   ...       0.48 
freq.     103.55  E(vib)   ...       0.46 
freq.     107.70  E(vib)   ...       0.45 
freq.     135.73  E(vib)   ...       0.42 
freq.     153.90  E(vib)   ...       0.40 
freq.     170.45  E(vib)   ...       0.38 
freq.     176.53  E(vib)   ...       0.38 
freq.     184.10  E(vib)   ...       0.37 
freq.     196.29  E(vib)   ...       0.36 
freq.     225.78  E(vib)   ...       0.33 
freq.     237.06  E(vib)   ...       0.32 
freq.     250.46  E(vib)   ...       0.30 
freq.     262.48  E(vib)   ...       0.29 
freq.     266.73  E(vib)   ...       0.29 
freq.     281.54  E(vib)   ...       0.28 
freq.     291.44  E(vib)   ...       0.27 
freq.     312.47  E(vib)   ...       0.25 
freq.     319.91  E(vib)   ...       0.25 
freq.     343.48  E(vib)   ...       0.23 
freq.     350.27  E(vib)   ...       0.23 
freq.     360.60  E(vib)   ...       0.22 
freq.     372.19  E(vib)   ...       0.21 
freq.     378.41  E(vib)   ...       0.21 
freq.     403.77  E(vib)   ...       0.19 
freq.     422.24  E(vib)   ...       0.18 
freq.     431.20  E(vib)   ...       0.18 
freq.     477.92  E(vib)   ...       0.15 
freq.     484.24  E(vib)   ...       0.15 
freq.     492.39  E(vib)   ...       0.14 
freq.     521.64  E(vib)   ...       0.13 
freq.     526.37  E(vib)   ...       0.13 
freq.     537.40  E(vib)   ...       0.12 
freq.     580.67  E(vib)   ...       0.11 
freq.     605.47  E(vib)   ...       0.10 
freq.     613.73  E(vib)   ...       0.10 
freq.     664.81  E(vib)   ...       0.08 
freq.     733.47  E(vib)   ...       0.06 
freq.     797.42  E(vib)   ...       0.05 
freq.     803.03  E(vib)   ...       0.05 
freq.     838.47  E(vib)   ...       0.04 
freq.     848.03  E(vib)   ...       0.04 
freq.     855.95  E(vib)   ...       0.04 
freq.     868.39  E(vib)   ...       0.04 
freq.     890.38  E(vib)   ...       0.04 
freq.     892.08  E(vib)   ...       0.03 
freq.     898.62  E(vib)   ...       0.03 
freq.     913.19  E(vib)   ...       0.03 
freq.     938.37  E(vib)   ...       0.03 
freq.     950.95  E(vib)   ...       0.03 
freq.     951.91  E(vib)   ...       0.03 
freq.     967.70  E(vib)   ...       0.03 
freq.     978.97  E(vib)   ...       0.03 
freq.     990.65  E(vib)   ...       0.02 
freq.     991.19  E(vib)   ...       0.02 
freq.    1000.94  E(vib)   ...       0.02 
freq.    1022.54  E(vib)   ...       0.02 
freq.    1026.19  E(vib)   ...       0.02 
freq.    1038.73  E(vib)   ...       0.02 
freq.    1048.70  E(vib)   ...       0.02 
freq.    1049.09  E(vib)   ...       0.02 
freq.    1053.17  E(vib)   ...       0.02 
freq.    1063.46  E(vib)   ...       0.02 
freq.    1077.61  E(vib)   ...       0.02 
freq.    1098.57  E(vib)   ...       0.02 
freq.    1143.52  E(vib)   ...       0.01 
freq.    1155.56  E(vib)   ...       0.01 
freq.    1187.67  E(vib)   ...       0.01 
freq.    1192.53  E(vib)   ...       0.01 
freq.    1201.38  E(vib)   ...       0.01 
freq.    1203.63  E(vib)   ...       0.01 
freq.    1223.97  E(vib)   ...       0.01 
freq.    1230.21  E(vib)   ...       0.01 
freq.    1233.65  E(vib)   ...       0.01 
freq.    1264.52  E(vib)   ...       0.01 
freq.    1282.37  E(vib)   ...       0.01 
freq.    1300.39  E(vib)   ...       0.01 
freq.    1310.70  E(vib)   ...       0.01 
freq.    1332.50  E(vib)   ...       0.01 
freq.    1338.85  E(vib)   ...       0.01 
freq.    1343.66  E(vib)   ...       0.01 
freq.    1348.68  E(vib)   ...       0.01 
freq.    1364.56  E(vib)   ...       0.01 
freq.    1377.26  E(vib)   ...       0.01 
freq.    1382.60  E(vib)   ...       0.01 
freq.    1384.21  E(vib)   ...       0.00 
freq.    1392.09  E(vib)   ...       0.00 
freq.    1396.96  E(vib)   ...       0.00 
freq.    1408.59  E(vib)   ...       0.00 
freq.    1410.46  E(vib)   ...       0.00 
freq.    1415.79  E(vib)   ...       0.00 
freq.    1419.73  E(vib)   ...       0.00 
freq.    1427.51  E(vib)   ...       0.00 
freq.    1472.38  E(vib)   ...       0.00 
freq.    1484.46  E(vib)   ...       0.00 
freq.    1491.10  E(vib)   ...       0.00 
freq.    1491.60  E(vib)   ...       0.00 
freq.    1492.14  E(vib)   ...       0.00 
freq.    1494.01  E(vib)   ...       0.00 
freq.    1496.32  E(vib)   ...       0.00 
freq.    1496.81  E(vib)   ...       0.00 
freq.    1499.13  E(vib)   ...       0.00 
freq.    1501.55  E(vib)   ...       0.00 
freq.    1504.84  E(vib)   ...       0.00 
freq.    1513.79  E(vib)   ...       0.00 
freq.    1514.52  E(vib)   ...       0.00 
freq.    1520.87  E(vib)   ...       0.00 
freq.    1598.62  E(vib)   ...       0.00 
freq.    1607.56  E(vib)   ...       0.00 
freq.    1642.57  E(vib)   ...       0.00 
freq.    1652.66  E(vib)   ...       0.00 
freq.    1659.44  E(vib)   ...       0.00 
freq.    2941.14  E(vib)   ...       0.00 
freq.    2973.95  E(vib)   ...       0.00 
freq.    2974.95  E(vib)   ...       0.00 
freq.    2979.40  E(vib)   ...       0.00 
freq.    2983.72  E(vib)   ...       0.00 
freq.    2991.37  E(vib)   ...       0.00 
freq.    2997.04  E(vib)   ...       0.00 
freq.    2997.14  E(vib)   ...       0.00 
freq.    2998.89  E(vib)   ...       0.00 
freq.    3002.59  E(vib)   ...       0.00 
freq.    3014.82  E(vib)   ...       0.00 
freq.    3020.15  E(vib)   ...       0.00 
freq.    3020.93  E(vib)   ...       0.00 
freq.    3035.34  E(vib)   ...       0.00 
freq.    3042.76  E(vib)   ...       0.00 
freq.    3050.41  E(vib)   ...       0.00 
freq.    3060.08  E(vib)   ...       0.00 
freq.    3065.06  E(vib)   ...       0.00 
freq.    3073.93  E(vib)   ...       0.00 
freq.    3076.24  E(vib)   ...       0.00 
freq.    3077.01  E(vib)   ...       0.00 
freq.    3082.35  E(vib)   ...       0.00 
freq.    3089.58  E(vib)   ...       0.00 
freq.    3100.34  E(vib)   ...       0.00 
freq.    3105.21  E(vib)   ...       0.00 
freq.    3108.58  E(vib)   ...       0.00 
freq.    3111.28  E(vib)   ...       0.00 
freq.    3121.43  E(vib)   ...       0.00 
freq.    3131.31  E(vib)   ...       0.00 
freq.    3729.08  E(vib)   ...       0.00 

------------
INNER ENERGY
------------

The inner energy is: U= E(el) + E(ZPE) + E(vib) + E(rot) + E(trans)
    E(el)   - is the total energy from the electronic structure calculation
              = E(kin-el) + E(nuc-el) + E(el-el) + E(nuc-nuc)
    E(ZPE)  - the the zero temperature vibrational energy from the frequency calculation
    E(vib)  - the the finite temperature correction to E(ZPE) due to population
              of excited vibrational states
    E(rot)  - is the rotational thermal energy
    E(trans)- is the translational thermal energy

Summary of contributions to the inner energy U:
Electronic energy                ...   -854.95895755 Eh
Zero point energy                ...      0.44861310 Eh     281.51 kcal/mol
Thermal vibrational correction   ...      0.02142485 Eh      13.44 kcal/mol
Thermal rotational correction    ...      0.00141627 Eh       0.89 kcal/mol
Thermal translational correction ...      0.00141627 Eh       0.89 kcal/mol
-----------------------------------------------------------------------
Total thermal energy                   -854.48608705 Eh


Summary of corrections to the electronic energy:
(perhaps to be used in another calculation)
Total thermal correction                  0.02425740 Eh      15.22 kcal/mol
Non-thermal (ZPE) correction              0.44861310 Eh     281.51 kcal/mol
-----------------------------------------------------------------------
Total correction                          0.47287050 Eh     296.73 kcal/mol


--------
ENTHALPY
--------

The enthalpy is H = U + kB*T
                kB is Boltzmann's constant
Total thermal energy              ...   -854.48608705 Eh 
Thermal Enthalpy correction       ...      0.00094421 Eh       0.59 kcal/mol
-----------------------------------------------------------------------
Total Enthalpy                    ...   -854.48514284 Eh


Note: Only C1 symmetry has been detected, increase convergence thresholds 
      if your molecule has a higher symmetry. Symmetry factor of 1.0 is   
      used for the rotational entropy correction. 
 

Note: Rotational entropy computed according to Herzberg 
Infrared and Raman Spectra, Chapter V,1, Van Nostrand Reinhold, 1945 
Point Group:  C1, Symmetry Number:   1  
Rotational constants in cm-1:     0.025645     0.002623     0.002527 

Vibrational entropy computed according to the QRRHO of S. Grimme
Chem.Eur.J. 2012 18 9955 using a reference frequency of 100.0 cm-1


-------
ENTROPY
-------

The entropy contributions are T*S = T*(S(el)+S(vib)+S(rot)+S(trans))
     S(el)   - electronic entropy
     S(vib)  - vibrational entropy
     S(rot)  - rotational entropy
     S(trans)- translational entropy
The entropies will be listed as multiplied by the temperature to get
units of energy

Electronic entropy                ...      0.00000000 Eh      0.00 kcal/mol
Vibrational entropy               ...      0.03814801 Eh     23.94 kcal/mol
Rotational entropy                ...      0.01686949 Eh     10.59 kcal/mol
Translational entropy             ...      0.02036176 Eh     12.78 kcal/mol
-----------------------------------------------------------------------
Final entropy term                ...      0.07537926 Eh     47.30 kcal/mol

In case the symmetry of your molecule has not been determined correctly
or in case you have a reason to use a different symmetry number we print 
out the resulting rotational entropy values for sn=1,12:

 non-linear molecules -----------------------------------
|  sn= 1 | S(rot)=       0.01686949 Eh     10.59 kcal/mol|
|  sn= 2 | S(rot)=       0.01621503 Eh     10.18 kcal/mol|
|  sn= 3 | S(rot)=       0.01583220 Eh      9.93 kcal/mol|
|  sn= 4 | S(rot)=       0.01556057 Eh      9.76 kcal/mol|
|  sn= 5 | S(rot)=       0.01534989 Eh      9.63 kcal/mol|
|  sn= 6 | S(rot)=       0.01517774 Eh      9.52 kcal/mol|
|  sn= 7 | S(rot)=       0.01503220 Eh      9.43 kcal/mol|
|  sn= 8 | S(rot)=       0.01490612 Eh      9.35 kcal/mol|
|  sn= 9 | S(rot)=       0.01479491 Eh      9.28 kcal/mol|
|  sn=10 | S(rot)=       0.01469543 Eh      9.22 kcal/mol|
|  sn=11 | S(rot)=       0.01460544 Eh      9.17 kcal/mol|
|  sn=12 | S(rot)=       0.01452329 Eh      9.11 kcal/mol|
 linear molecules ---------------------------------------
|  Dinfh | S(rot)=       0.01097271 Eh      6.89 kcal/mol|
|  Cinfv | S(rot)=       0.01162717 Eh      7.30 kcal/mol|
 --------------------------------------------------------


-------------------
GIBBS FREE ENERGY
-------------------

The Gibbs free energy is G = H - T*S

Total enthalpy                    ...   -854.48514284 Eh 
Total entropy correction          ...     -0.07537926 Eh    -47.30 kcal/mol
-----------------------------------------------------------------------
Final Gibbs free energy         ...   -854.56052210 Eh

For completeness - the Gibbs free energy minus the electronic energy
G-E(el)                           ...      0.39843545 Eh    250.02 kcal/mol


Maximum memory used throughout the entire PROP-calculation: 135.0 MB

--------------------------------
SUGGESTED CITATIONS FOR THIS RUN
--------------------------------

Below you find a list of papers that are relevant to this ORCA run
We neither can nor want to force you to cite these papers, but we appreciate if you do
You receive ORCA, which is the product of decades of hard work by many enthusiastic individuals, for free
The only thing we kindly ask in return is that you cite our papers,
We deeply appreciate it, if you show your appreciation for ORCA by not just citing the generic ORCA reference.

Please note that relegating all ORCA citations to the supporting information does *not* help us.
SI sections are not indexed - citations you put there will not count into any citation statistics
But we need these citations in order to attract the funding resources that allow us to do what we are doing

Therefore, if you are a happy ORCA user, please consider citing a few of the papers listed below in the main body of your paper

In addition to the list printed below, the program has created the file m1_00_Vitamin_A-GFN2_000-B97-3C-TZ.bibtex that contains the list in bibtex format
You can import this file easily into all common literature databanks and citation aid programs


List of essential papers. We consider these as the minimum necessary citations

  1. Neese,F.
     Software update: the ORCA program system, version 5.0
     WIRES Comput. Molec. Sci., 2022 12(1)e1606
     doi.org/10.1002/wcms.1606

List of papers to cite with high priority. The work reported in these papers was absolutely
necessary for this run to complete.
Our perspective: the developers of density functionals and basis sets usually get cited in chemistry papers
Good! But without the algorithms to do something with them, the functionals or basis sets would not do anything.
Hence, in our opinion, the algorithm design and method developments papers are equally worthy of getting cited

  1. Neese,F.
     An improvement of the resolution of the identity approximation for the formation of the Coulomb matrix
     J. Comp. Chem., 2003 24(14)1740-1747
     doi.org/10.1002/jcc.10318
  2. Bykov,D.; Petrenko,T.; Izsak,R.; Kossmann,S.; Becker,U.; Valeev,E.; Neese,F.
     Efficient implementation of the analytic second derivatives of Hartree-Fock and hybrid DFT energies: a detailed analysis of different approximations
     Molec. Phys., 2015 113 1961-1977
     doi.org/10.1080/00268976.2015.1025114
  3. Neese,F.
     The SHARK Integral Generation and Digestion System
     J. Comp. Chem., 2022  1-16
     doi.org/10.1002/jcc.26942
  4. Grimme,S.; Antony,J.; Ehrlich,S.; Krieg,H.
     A consistent and accurate ab initio parametrization of density functional dispersion correction (DFT-D) for the 94 elements H-Pu
     J. Chem. Phys., 2010 132 154104
     doi.org/10.1063/1.3382344
  5. Grimme,S.; Ehrlich,S.; Goerigk,L.
     Effect of the damping function in dispersion corrected density functional theory
     J. Comput. Chem., 2011 32(7)1456-1465
     doi.org/10.1002/jcc.21759

List of suggested additional citations. These are papers that are important in the 'surrounding' of 
of this run, or papers that preceded the highly important papers. If you like your results we are grateful for a citation.

  1. Neese,F.
     The ORCA program system
     WIRES Comput. Molec. Sci., 2012 2(1)73-78
     doi.org/10.1002/wcms.81
  2. Neese,F.
     Software update: the ORCA program system, version 4.0
     WIRES Comput. Molec. Sci., 2018 8(1)1-6
     doi.org/10.1002/wcms.1327
  3. Neese,F.; Wennmohs,F.; Becker,U.; Riplinger,C.
     The ORCA quantum chemistry program package
     J. Chem. Phys., 2020 152 Art. No. L224108
     doi.org/10.1063/5.0004608

List of optional additional citations

  1. Neese,F.
     Approximate second-order SCF convergence for spin unrestricted wavefunctions
     Chem. Phys. Lett., 2000 325(1-3)93-98
     doi.org/10.1016/s0009-2614(00)00662-x

Timings for individual modules:

Sum of individual times          ...      668.493 sec (=  11.142 min)
Startup calculation              ...       71.610 sec (=   1.193 min)  10.7 %
SCF iterations                   ...      150.959 sec (=   2.516 min)  22.6 %
Property integrals               ...      125.249 sec (=   2.087 min)  18.7 %
SCF Response                     ...      170.868 sec (=   2.848 min)  25.6 %
Property calculations            ...       55.452 sec (=   0.924 min)   8.3 %
SCF Gradient evaluation          ...       94.139 sec (=   1.569 min)  14.1 %
Geometry relaxation              ...        0.217 sec (=   0.004 min)   0.0 %
                             ****ORCA TERMINATED NORMALLY****
TOTAL RUN TIME: 0 days 0 hours 11 minutes 11 seconds 908 msec
