
                                 *****************
                                 * O   R   C   A *
                                 *****************

                                            #,                                       
                                            ###                                      
                                            ####                                     
                                            #####                                    
                                            ######                                   
                                           ########,                                 
                                     ,,################,,,,,                         
                               ,,#################################,,                 
                          ,,##########################################,,             
                       ,#########################################, ''#####,          
                    ,#############################################,,   '####,        
                  ,##################################################,,,,####,       
                ,###########''''           ''''###############################       
              ,#####''   ,,,,##########,,,,          '''####'''          '####       
            ,##' ,,,,###########################,,,                        '##       
           ' ,,###''''                  '''############,,,                           
         ,,##''                                '''############,,,,        ,,,,,,###''
      ,#''                                            '''#######################'''  
     '                                                          ''''####''''         
             ,#######,   #######,   ,#######,      ##                                
            ,#'     '#,  ##    ##  ,#'     '#,    #''#        ,####,   ,####,        
            ##       ##  ##   ,#'  ##            #'  '#       #'       #'  '#        
            ##       ##  #######   ##           ,######,      #####,   #    #        
            '#,     ,#'  ##    ##  '#,     ,#' ,#      #,     #,   #   #,  ,#        
             '#######'   ##     ##  '#######'  #'      '#     '####' # '####'        



                #########################################################
                #                        -***-                          #
                #          Department of theory and spectroscopy        #
                #                                                       #
                #                      Frank Neese                      #
                #                                                       #
                #     Directorship, Architecture, Infrastructure        #
                #                    SHARK, DRIVERS                     #
                #        Core code/Algorithms in most modules           #
                #                                                       #
                #        Max Planck Institute fuer Kohlenforschung      #
                #                Kaiser Wilhelm Platz 1                 #
                #                 D-45470 Muelheim/Ruhr                 #
                #                      Germany                          #
                #                                                       #
                #                  All rights reserved                  #
                #                        -***-                          #
                #########################################################


                         Program Version 6.0.1  -  RELEASE   -


 With contributions from (in alphabetic order):
[Max-Planck-Institut fuer Kohlenforschung]                               
  Daniel Aravena         : Magnetic Suceptibility                        
  Michael Atanasov       : Ab Initio Ligand Field Theory (pilot matlab implementation)
  Alexander A. Auer      : GIAO ZORA, VPT2 properties, NMR spectrum      
  Ute Becker             : All parallelization in ORCA, NUMFREQ, NUMCALC 
  Giovanni Bistoni       : ED, misc. LED, open-shell LED, HFLD           
  Martin Brehm           : Molecular dynamics                            
  Dmytro Bykov           : pre 5.0 version of the SCF Hessian            
  Marcos Casanova-Páez   : Triplet and SCS-CIS(D). UHF-(DLPNO)-IP/EA/STEOM-CCSD. UHF-CVS-IP/STEOM-CCSD   
  Vijay G. Chilkuri      : MRCI spin determinant printing, contributions to CSF-ICE 
  Pauline Colinet        : FMM embedding                                 
  Dipayan Datta          : RHF DLPNO-CCSD density                        
  Achintya Kumar Dutta   : EOM-CC, STEOM-CC                              
  Nicolas Foglia         : Exact transition moments, OPA infrastructure, MCD improvements    
  Dmitry Ganyushin       : Spin-Orbit,Spin-Spin,Magnetic field MRCI      
  Miquel Garcia-Rates    : C-PCM and meta-GGA Hessian, CCSD/C-PCM, Gaussian charge scheme 
  Tiago L. C. Gouveia    : GS-ROHF, GS-ROCIS                             
  Yang Guo               : DLPNO-NEVPT2, F12-NEVPT2, CIM, IAO-localization        
  Andreas Hansen         : Spin unrestricted coupled pair/coupled cluster methods 
  Ingolf Harden          : AUTO-CI MPn and infrastructure                
  Benjamin Helmich-Paris : MC-RPA, TRAH-(SCF,CASSCF), AVAS, COSX integrals, SCF dyn. polar. 
  Lee Huntington         : MR-EOM, pCC                                   
  Robert Izsak           : Overlap fitted RIJCOSX, COSX-SCS-MP3, EOM     
  Riya Kayal             : Wick's Theorem for AUTO-CI, AUTO-CI UHF-CCSDT 
  Emily Kempfer          : AUTO-CI, RHF CISDT and CCSDT                  
  Christian Kollmar      : KDIIS, OOCD, Brueckner-CCSD(T), CCSD density, CASPT2, CASPT2-K, improved NEVPT2 
  Axel Koslowski         : Symmetry handling                             
  Simone Kossmann        : meta-GGA functionals, TD-DFT gradient, OOMP2, (MP2 Hessian; deprecated post 5.0) 
  Lucas Lang             : DCDCAS                                        
  Marvin Lechner         : AUTO-CI (C++ implementation), FIC-MRCC        
  Spencer Leger          : CASSCF response                               
  Dagmar Lenk            : GEPOL surface, SMD, ORCA-2-JSON               
  Dimitrios Liakos       : Extrapolation schemes; Compound Job, initial MDCI parallelization 
  Dimitrios Manganas     : Further ROCIS development; embedding schemes. LFT, Crystal Embedding 
  Dimitrios Pantazis     : SARC Basis sets                               
  Anastasios Papadopoulos: AUTO-CI, single reference methods and gradients 
  Taras Petrenko         : pre 6.0 DFT Hessian and TD-DFT gradient, (ASA, deprecated), ECA, 1-Electron XAS/XES, NRVS 
  Peter Pinski           : DLPNO-MP2, DLPNO-MP2 Gradient                 
  Christoph Reimann      : Effective Core Potentials                     
  Marius Retegan         : Local ZFS, SOC                                
  Christoph Riplinger    : Optimizer, TS searches, QM/MM, DLPNO-CCSD(T), (RO)-DLPNO pert. Triples 
  Michael Roemelt        : Original ROCIS implementation                 
  Masaaki Saitow         : Open-shell DLPNO-CCSD energy and density      
  Barbara Sandhoefer     : DKH picture change effects                    
  Kantharuban Sivalingam : CASSCF convergence/infrastructure, NEVPT2 and variants, FIC-MRCI 
  Bernardo de Souza      : ESD, SOC TD-DFT                               
  Georgi L. Stoychev     : AutoAux, RI-MP2 NMR, DLPNO-MP2 response, X2C  
  Van Anh Tran           : RI-MP2 g-tensors                              
  Willem Van den Heuvel  : Paramagnetic NMR                              
  Zikuan Wang            : NOTCH, Electric field optimization            
  Frank Wennmohs         : Technical directorship and infrastructure     
  Hang Xu                : AUTO-CI-Response properties                   
                                                                         
[FACCTs GmbH]                                                            
  Markus Bursch, Miquel Garcia-Rates, Christoph Riplinger, Bernardo de Souza, Georgi L. Stoychev 
                                                                 
  APM, Basis sets (HGBS, AHGBS, def-TZVP (Ac-Lr), def2-XVPD (La-Lu)), CI-OPT, improved COSX, DLPNO-Multilevel,           
  DOCKER, DRACO, updates on ESD, GOAT, IRC, LR-CPCM, MBIS, meta-GGA TD-DFT gradient, ML-optimized integration grids, 
  MM, NACMEs, nearIR, NEB, NEB-TS, NL-DFT gradient (VV10), 2- and 3-layer-ONIOM, interface openCOSMO-RS, QMMM,   
  Crystal-QMMM, SF, symmetry and pop. for TD-DFT, r2SCAN hybrids, SOLVATOR                                   
                                                                         
[Other institutions]                                                     
  V. Asgeirsson          : NEB                                           
  Christoph Bannwarth    : sTDA-DFT, sTD-DFT, PBEh-3c, B97-3c, D3        
  Sebastian Ehlert       : rSCAN, r2SCAN, r2SCAN-3c, D4, dhf basis sets  
  Marvin Friede          : D4 for Fr, Ra, Ac-Lr                          
  Lars Goerigk           : TD-DFT with DH, B97 family of functionals     
  Stefan Grimme          : VdW corrections, initial TS optimization, DFT functionals, gCP, sTDA/sTD-DF 
  Waldemar Hujo          : DFT-NL                                        
  H. Jonsson             : NEB                                           
  Holger Kruse           : gCP                                           
  Marcel Mueller         : wB97X-3c, vDZP basis set                      
  Hagen Neugebauer       : wr2SCAN                                       
  Tobias Risthaus        : range-separated hybrid DFT                    
  Lukas Wittmann         : regularized MP2, r2SCAN double-hybrids, wr2SCAN        
                                                                         
We gratefully acknowledge several colleagues who have allowed us to      
interface, adapt or use parts of their codes:                            
  Ed Valeev, F. Pavosevic, A. Kumar             : LibInt (2-el integral package), F12 methods 
  Garnet Chan, S. Sharma, J. Yang, R. Olivares  : DMRG                   
  Ulf Ekstrom                                   : XCFun DFT Library      
  Mihaly Kallay                                 : mrcc  (arbitrary order and MRCC methods)
  Frank Weinhold                                : gennbo (NPA and NBO analysis)           
  Simon Mueller                                 : openCOSMO-RS                            
  Christopher J. Cramer and Donald G. Truhlar   : smd solvation model                     
  S Lehtola, MJT Oliveira, MAL Marques          : LibXC Library                           
  Liviu Ungur et al                             : ANISO software                          


 Your calculation uses the libint2 library for the computation of 2-el integrals
 For citations please refer to: http://libint.valeyev.net

 Your ORCA version has been built with support for libXC version: 6.2.2
 For citations please refer to: https://libxc.gitlab.io

 This ORCA versions uses:
   CBLAS   interface :  Fast vector & matrix operations
   LAPACKE interface :  Fast linear algebra routines
   SCALAPACK package :  Parallel linear algebra routines
   Shared memory     :  Shared parallel matrices
   BLAS/LAPACK       :  OpenBLAS 0.3.27  USE64BITINT DYNAMIC_ARCH NO_AFFINITY Zen SINGLE_THREADED
        Core in use  :  Zen
   Copyright (c) 2011-2014, The OpenBLAS Project


NOTE: MaxCore=6000 MB was set to SCF,MP2,MDCI,CIPSI,MRCI and CIS
      => If you want to overwrite this, your respective input block should be placed after the MaxCore statement
Your calculation utilizes the atom-pairwise dispersion correction
with the Becke-Johnson damping scheme (D3BJ)


Your calculation employs the composite approach B97-3c by Grimme and coworkers.
For the correct reference, please check the publication list of the Grimme group:
http://www.thch.uni-bonn.de/tc/index.php?section=publikationen&subsection=grimme#2017
   

XCFun DFT library Copyright 2009-2010 Ulf Ekstrom and contributors.
See http://admol.org/xcfun for more information.
This is free software; see the source code for copying conditions.
There is ABSOLUTELY NO WARRANTY; not even for MERCHANTABILITY or FITNESS FOR A PARTICULAR PURPOSE.
For details see the documentation.
Scientific users of this library should cite U. Ekstrom, L. Visscher, R. Bast, A. J. Thorvaldsen and K. Ruud;
J.Chem.Theor.Comp. 2010, DOI: 10.1021/ct100117s
XCFun Version 0.99 

================================================================================

----- Orbital basis set information -----
Your calculation utilizes the basis: def2-mTZVP
----- AuxJ basis set information -----
Your calculation utilizes the basis: def2-mTZVP/J
================================================================================
                                        WARNINGS
                       Please study these warnings very carefully!
================================================================================


WARNING: Geometry Optimization
  ===> : Switching off AutoStart
         For restart on a previous wavefunction, please use MOREAD

================================================================================
                                       INPUT FILE
================================================================================
NAME = m1_00_Vitamin_A-GFN2_004-B97-3C-TZ.inp
|  1> %pal nprocs 16 end
|  2> %MaxCore 6000
|  3> # put your comments here
|  4> ! B97-3C  OPT  FREQ DEFGRID3 NOTRAH
|  5> %scf MaxIter 800 end
|  6> %output
|  7> Print [P_Hirshfeld] 1
|  8> end
|  9> %geom
| 10> MaxIter 3000
| 11>  TolE 1e-6 #TolE 5e-6 Energy change (a.u.)
| 12>  TolRMSG 3e-5 #TolRMSG 1e-4 RMS gradient (a.u.)
| 13>  TolMaxG 1e-4 #TolMaxG 3e-3 Max. element of gradient (a.u.)
| 14>  TolRMSD 2e-3 #TolRMSD 2e-3 RMS displacement (a.u.)
| 15>  TolMaxD 4e-3 #TolMaxD 4e-3 Max. displacement (a.u.)
| 16> end
| 17> * xyz 0 1
| 18>  O 8.23033039764264 1.26700833821897 1.41521598691941
| 19>  C -4.38586366192187 0.51266929111209 -1.85372168436310
| 20>  C -5.48315711913873 1.54291206338139 -1.55535185058048
| 21>  C -6.20712178476402 1.23644111677652 -0.25416696920394
| 22>  C -3.53465868547046 0.25856392061869 -0.61438937158858
| 23>  C -5.21646458160252 1.32437035515707 0.89814231573600
| 24>  C -3.92983417676049 0.59443645070599 0.62030288382317
| 25>  C -3.50548558989787 1.07330598687419 -2.97911610408600
| 26>  C -5.01538661251532 -0.80697015597322 -2.32318513348750
| 27>  C -2.26833443071370 -0.41853850076139 -0.88521244063249
| 28>  C -3.14414793986722 0.28082496084480 1.86108687046417
| 29>  C -1.07257493637332 -0.01821027012303 -0.42537194183808
| 30>  C 0.19629936570271 -0.65251614428780 -0.68952268483542
| 31>  C 0.19200522135141 -1.91074113676541 -1.50582575959596
| 32>  C 1.32190167120579 -0.08286238772779 -0.18973527842491
| 33>  C 2.66891828415542 -0.52996931269052 -0.33149210661436
| 34>  C 3.71279177195074 0.12845535480455 0.21381894628518
| 35>  C 5.10279298989047 -0.25035465017110 0.11999002879558
| 36>  C 5.45042115225178 -1.48986727480739 -0.65349764940726
| 37>  C 6.03333130386341 0.50761506748027 0.72080410472783
| 38>  C 7.51441129317843 0.27107223789668 0.72252028069757
| 39>  H -6.19036761952948 1.56772441768365 -2.38738701680420
| 40>  H -5.02697146419896 2.53264679611189 -1.47585920217938
| 41>  H -6.64056924473690 0.23622190873945 -0.29327052796771
| 42>  H -7.02345998976650 1.94560576092076 -0.10035488718375
| 43>  H -5.66986997673057 0.93206902296111 1.81212238986139
| 44>  H -4.97432273595306 2.37636965200109 1.08937691932078
| 45>  H -2.98430191815186 1.96731570169493 -2.64291427877637
| 46>  H -2.76140664907078 0.34900072414835 -3.29962603742240
| 47>  H -4.12139329558082 1.33474975672461 -3.83768287331623
| 48>  H -5.68093960082808 -0.62569371038236 -3.16501792056380
| 49>  H -4.25101199468224 -1.50968696614100 -2.64473356969630
| 50>  H -5.58520553717161 -1.27285290546422 -1.52334133775358
| 51>  H -2.32778198000135 -1.26906046396279 -1.55027893818784
| 52>  H -2.67785420377821 1.18476393771109 2.25441910427402
| 53>  H -2.36626308139704 -0.45311030595290 1.67269222635702
| 54>  H -3.81010677800575 -0.10396744139921 2.63326861604559
| 55>  H -1.02715155405340 0.87595908594091 0.18247873092958
| 56>  H 1.18327427674868 -2.34205257745426 -1.59242275387333
| 57>  H -0.46410812285164 -2.65070532347688 -1.04872691085189
| 58>  H -0.17896382804356 -1.70403512904489 -2.50980020876825
| 59>  H 1.20229804875888 0.82599367668188 0.38929593626939
| 60>  H 2.84902160286296 -1.42926786708495 -0.90028149886240
| 61>  H 3.51224167503011 1.02935423672466 0.78115307791797
| 62>  H 4.95725044693785 -2.35454020756382 -0.21167733642357
| 63>  H 6.52045891032917 -1.66913146510624 -0.65500855131927
| 64>  H 5.11166866754146 -1.39615427329781 -1.68452211504127
| 65>  H 5.72094241394565 1.38220107190824 1.27727783574547
| 66>  H 7.88835434190334 0.19139663233317 -0.31271408137795
| 67>  H 7.75649896316006 -0.66449500141252 1.23892557822145
| 68>  H 7.99668829514693 2.12663494489772 1.04786918863908
| 69> *
| 70> 
| 71> 
| 72> 
| 73> 
| 74>                          ****END OF INPUT****
================================================================================

                       *****************************
                       * Geometry Optimization Run *
                       *****************************

Geometry optimization settings:
Update method            Update   .... BFGS
Choice of coordinates    CoordSys .... (2022) Redundant Internals
Initial Hessian          InHess   .... Almloef's Model
Max. no of cycles        MaxIter  .... 3000

Convergence Tolerances:
Energy Change            TolE     ....  1.0000e-06 Eh
Max. Gradient            TolMAXG  ....  1.0000e-04 Eh/bohr
RMS Gradient             TolRMSG  ....  3.0000e-05 Eh/bohr
Max. Displacement        TolMAXD  ....  4.0000e-03 bohr
RMS Displacement         TolRMSD  ....  2.0000e-03 bohr
Strict Convergence                .... False

------------------------------------------------------------------------------
                        ORCA OPTIMIZATION COORDINATE SETUP
------------------------------------------------------------------------------

The optimization will be done in redundant internal coordinates (2022)
Making redundant internal coordinates   ...  (2022 redundants) done
Evaluating the initial hessian          ...  (Almloef) done
Evaluating the coordinates              ...  done
Calculating the B-matrix                .... done
Calculating the G-matrix                .... done
Diagonalizing the G-matrix              .... done
Small eigenvalue found = 9.087e-04
Small eigenvalue found = 3.347e-03
Small eigenvalue found = 5.465e-03
Small eigenvalue found = 7.437e-03
Small eigenvalue found = 1.214e-02
Small eigenvalue found = 1.738e-02
Small eigenvalue found = 2.068e-02
Small eigenvalue found = 2.827e-02
The first mode is                       ....   94
The number of degrees of freedom        ....  147

    -----------------------------------------------------------------
                    Redundant Internal Coordinates


    -----------------------------------------------------------------
         Definition                    Initial Value    Approx d2E/dq
    -----------------------------------------------------------------
      1. B(C   2,C   1)                  1.5344         0.367543   
      2. B(C   3,C   2)                  1.5202         0.387211   
      3. B(C   4,C   1)                  1.5248         0.380757   
      4. B(C   5,C   3)                  1.5222         0.384500   
      5. B(C   6,C   5)                  1.5051         0.409314   
      6. B(C   6,C   4)                  1.3392         0.753004   
      7. B(C   7,C   1)                  1.5349         0.366922   
      8. B(C   8,C   1)                  1.5356         0.365935   
      9. B(C   9,C   4)                  1.4613         0.480826   
     10. B(C  10,C   6)                  1.5017         0.414454   
     11. B(C  11,C   9)                  1.3422         0.744676   
     12. B(C  12,C  11)                  1.4430         0.514315   
     13. B(C  13,C  12)                  1.4998         0.417356   
     14. B(C  14,C  12)                  1.3569         0.705491   
     15. B(C  15,C  14)                  1.4263         0.546709   
     16. B(C  16,C  15)                  1.3493         0.725610   
     17. B(C  17,C  16)                  1.4437         0.512849   
     18. B(C  18,C  17)                  1.5018         0.414292   
     19. B(C  19,C  17)                  1.3422         0.744838   
     20. B(C  20,C  19)                  1.4999         0.417329   
     21. B(C  20,O   0)                  1.4086         0.522568   
     22. B(H  21,C   2)                  1.0923         0.357115   
     23. B(H  22,C   2)                  1.0927         0.356542   
     24. B(H  23,C   3)                  1.0908         0.359043   
     25. B(H  24,C   3)                  1.0922         0.357153   
     26. B(H  25,C   5)                  1.0931         0.356041   
     27. B(H  26,C   5)                  1.0963         0.351843   
     28. B(H  27,C   7)                  1.0881         0.362649   
     29. B(H  28,C   7)                  1.0867         0.364442   
     30. B(H  29,C   7)                  1.0885         0.362090   
     31. B(H  30,C   8)                  1.0883         0.362290   
     32. B(H  31,C   8)                  1.0870         0.364150   
     33. B(H  32,C   8)                  1.0870         0.364139   
     34. B(H  33,C   9)                  1.0813         0.371779   
     35. B(H  34,C  10)                  1.0905         0.359406   
     36. B(H  35,C  10)                  1.0859         0.365516   
     37. B(H  36,C  10)                  1.0899         0.360263   
     38. B(H  37,C  11)                  1.0822         0.370613   
     39. B(H  38,C  13)                  1.0845         0.367448   
     40. B(H  39,C  13)                  1.0895         0.360786   
     41. B(H  40,C  13)                  1.0901         0.359973   
     42. B(H  41,C  14)                  1.0843         0.367785   
     43. B(H  42,C  15)                  1.0792         0.374659   
     44. B(H  43,C  16)                  1.0834         0.368968   
     45. B(H  44,C  18)                  1.0891         0.361327   
     46. B(H  45,C  18)                  1.0850         0.366841   
     47. B(H  46,C  18)                  1.0893         0.361044   
     48. B(H  47,C  19)                  1.0827         0.369943   
     49. B(H  48,C  20)                  1.1036         0.342574   
     50. B(H  49,C  20)                  1.0957         0.352633   
     51. B(H  50,O   0)                  0.9636         0.513159   
     52. A(C  20,O   0,H  50)          108.6655         0.358642   
     53. A(C   2,C   1,C   7)          107.9088         0.361233   
     54. A(C   2,C   1,C   4)          110.6738         0.363523   
     55. A(C   7,C   1,C   8)          108.9577         0.360963   
     56. A(C   4,C   1,C   7)          109.6706         0.363418   
     57. A(C   4,C   1,C   8)          109.5188         0.363251   
     58. A(C   2,C   1,C   8)          110.0762         0.361067   
     59. A(C   1,C   2,H  21)          109.2776         0.323012   
     60. A(H  21,C   2,H  22)          107.7671         0.290007   
     61. A(C   1,C   2,H  22)          108.8896         0.322927   
     62. A(C   1,C   2,C   3)          111.8160         0.364570   
     63. A(C   3,C   2,H  22)          108.6112         0.325704   
     64. A(C   3,C   2,H  21)          110.3792         0.325790   
     65. A(C   2,C   3,C   5)          109.0482         0.367397   
     66. A(C   5,C   3,H  23)          109.7992         0.325702   
     67. A(H  23,C   3,H  24)          107.6630         0.290330   
     68. A(C   5,C   3,H  24)          110.0180         0.325419   
     69. A(C   2,C   3,H  24)          110.2164         0.325795   
     70. A(C   2,C   3,H  23)          110.0843         0.326078   
     71. A(C   1,C   4,C   9)          114.2260         0.380735   
     72. A(C   6,C   4,C   9)          122.8740         0.429422   
     73. A(C   1,C   4,C   6)          122.8765         0.411909   
     74. A(H  25,C   5,H  26)          106.8669         0.289268   
     75. A(C   3,C   5,H  25)          110.0167         0.325252   
     76. A(C   6,C   5,H  26)          107.9842         0.327978   
     77. A(C   3,C   5,H  26)          109.3434         0.324619   
     78. A(C   6,C   5,H  25)          109.5650         0.328620   
     79. A(C   3,C   5,C   6)          112.8667         0.370917   
     80. A(C   4,C   6,C   5)          122.9610         0.417239   
     81. A(C   5,C   6,C  10)          113.3279         0.375745   
     82. A(C   4,C   6,C  10)          123.7108         0.418167   
     83. A(H  28,C   7,H  29)          108.3533         0.291640   
     84. A(H  27,C   7,H  29)          108.5057         0.291414   
     85. A(H  27,C   7,H  28)          108.1066         0.291711   
     86. A(C   1,C   7,H  28)          111.4397         0.324000   
     87. A(C   1,C   7,H  27)          110.3835         0.323738   
     88. A(C   1,C   7,H  29)          109.9689         0.323656   
     89. A(H  30,C   8,H  32)          108.6621         0.291628   
     90. A(C   1,C   8,H  32)          110.9940         0.323813   
     91. A(H  30,C   8,H  31)          107.9931         0.291629   
     92. A(C   1,C   8,H  31)          110.9605         0.323814   
     93. A(C   1,C   8,H  30)          110.1224         0.323543   
     94. A(H  31,C   8,H  32)          108.0134         0.291862   
     95. A(C  11,C   9,H  33)          119.6232         0.366078   
     96. A(C   4,C   9,H  33)          115.5188         0.339959   
     97. A(C   4,C   9,C  11)          124.7727         0.428566   
     98. A(H  34,C  10,H  36)          107.3604         0.290772   
     99. A(C   6,C  10,H  36)          109.8423         0.329940   
    100. A(H  34,C  10,H  35)          108.4513         0.291434   
    101. A(C   6,C  10,H  35)          111.8744         0.330731   
    102. A(C   6,C  10,H  34)          110.4025         0.329810   
    103. A(H  35,C  10,H  36)          108.7841         0.291543   
    104. A(C   9,C  11,C  12)          126.1265         0.433781   
    105. A(C  12,C  11,H  37)          115.4125         0.343632   
    106. A(C   9,C  11,H  37)          118.4423         0.365881   
    107. A(C  13,C  12,C  14)          123.7121         0.413860   
    108. A(C  11,C  12,C  14)          118.5203         0.429588   
    109. A(C  11,C  12,C  13)          117.7676         0.391432   
    110. A(H  39,C  13,H  40)          108.0747         0.290910   
    111. A(H  38,C  13,H  40)          108.2356         0.291748   
    112. A(C  12,C  13,H  40)          110.0697         0.330277   
    113. A(H  38,C  13,H  39)          108.2907         0.291852   
    114. A(C  12,C  13,H  39)          110.0691         0.330400   
    115. A(C  12,C  13,H  38)          111.9922         0.331402   
    116. A(C  12,C  14,C  15)          127.9653         0.434329   
    117. A(C  15,C  14,H  41)          114.8350         0.346729   
    118. A(C  12,C  14,H  41)          117.1996         0.362041   
    119. A(C  14,C  15,C  16)          122.5132         0.436534   
    120. A(C  16,C  15,H  42)          119.3751         0.364938   
    121. A(C  14,C  15,H  42)          118.1116         0.347812   
    122. A(C  15,C  16,C  17)          126.1960         0.431541   
    123. A(C  17,C  16,H  43)          115.4957         0.343211   
    124. A(C  15,C  16,H  43)          118.3083         0.363984   
    125. A(C  18,C  17,C  19)          122.4230         0.417327   
    126. A(C  16,C  17,C  19)          119.3561         0.433575   
    127. A(C  16,C  17,C  18)          118.2210         0.390733   
    128. A(H  45,C  18,H  46)          108.6392         0.291809   
    129. A(H  44,C  18,H  46)          108.1476         0.291115   
    130. A(C  17,C  18,H  46)          110.1508         0.330037   
    131. A(H  44,C  18,H  45)          108.4207         0.291845   
    132. A(C  17,C  18,H  45)          111.4304         0.330907   
    133. A(C  17,C  18,H  44)          109.9693         0.330079   
    134. A(C  17,C  19,C  20)          126.5899         0.417870   
    135. A(C  20,C  19,H  47)          114.3142         0.331770   
    136. A(C  17,C  19,H  47)          119.0938         0.365782   
    137. A(O   0,C  20,C  19)          113.0125         0.390022   
    138. A(H  48,C  20,H  49)          107.7943         0.287629   
    139. A(C  19,C  20,H  49)          110.6941         0.329151   
    140. A(O   0,C  20,H  49)          105.0486         0.339611   
    141. A(C  19,C  20,H  48)          110.1767         0.327583   
    142. A(O   0,C  20,H  48)          109.8846         0.337975   
    143. D(C   3,C   2,C   1,C   7)   -166.8012         0.010808   
    144. D(C   3,C   2,C   1,C   8)     74.4083         0.010808   
    145. D(H  21,C   2,C   1,C   8)    -48.0972         0.010808   
    146. D(C   3,C   2,C   1,C   4)    -46.7983         0.010808   
    147. D(H  21,C   2,C   1,C   7)     70.6933         0.010808   
    148. D(H  21,C   2,C   1,C   4)   -169.3039         0.010808   
    149. D(C   5,C   3,C   2,H  22)    -57.3526         0.011928   
    150. D(H  23,C   3,C   2,H  22)   -177.8695         0.011928   
    151. D(C   5,C   3,C   2,C   1)     62.8303         0.011928   
    152. D(H  23,C   3,C   2,C   1)    -57.6866         0.011928   
    153. D(H  23,C   3,C   2,H  21)     64.1880         0.011928   
    154. D(C   5,C   3,C   2,H  21)   -175.2951         0.011928   
    155. D(C   6,C   4,C   1,C   8)   -104.2649         0.010815   
    156. D(C   6,C   4,C   1,C   7)    136.2130         0.010815   
    157. D(C   6,C   4,C   1,C   2)     17.2709         0.010815   
    158. D(C   9,C   4,C   1,C   2)   -164.4488         0.010815   
    159. D(C   9,C   4,C   1,C   7)    -45.5066         0.010815   
    160. D(H  25,C   5,C   3,C   2)   -169.7007         0.011769   
    161. D(H  25,C   5,C   3,H  23)    -49.0089         0.011769   
    162. D(C   6,C   5,C   3,H  24)   -167.9766         0.011769   
    163. D(C   6,C   5,C   3,C   2)    -46.9871         0.011769   
    164. D(H  25,C   5,C   3,H  24)     69.3098         0.011769   
    165. D(C   6,C   5,C   3,H  23)     73.7047         0.011769   
    166. D(C   4,C   6,C   5,H  26)   -102.1766         0.012410   
    167. D(C   4,C   6,C   5,H  25)    141.7762         0.012410   
    168. D(C   4,C   6,C   5,C   3)     18.8107         0.012410   
    169. D(C  10,C   6,C   4,C   9)     -1.8737         0.040468   
    170. D(C  10,C   6,C   4,C   1)    176.2590         0.040468   
    171. D(C   5,C   6,C   4,C   9)    178.3238         0.040468   
    172. D(C  10,C   6,C   5,C   3)   -161.0104         0.012410   
    173. D(C   5,C   6,C   4,C   1)     -3.5435         0.040468   
    174. D(C  10,C   6,C   5,H  25)    -38.0449         0.012410   
    175. D(H  28,C   7,C   1,C   8)    -55.3132         0.010774   
    176. D(H  28,C   7,C   1,C   4)     64.5522         0.010774   
    177. D(H  28,C   7,C   1,C   2)   -174.8147         0.010774   
    178. D(H  27,C   7,C   1,C   8)   -175.4527         0.010774   
    179. D(H  27,C   7,C   1,C   4)    -55.5873         0.010774   
    180. D(H  27,C   7,C   1,C   2)     65.0458         0.010774   
    181. D(H  31,C   8,C   1,C   7)     55.4928         0.010720   
    182. D(H  31,C   8,C   1,C   4)    -64.4665         0.010720   
    183. D(H  31,C   8,C   1,C   2)    173.6386         0.010720   
    184. D(H  30,C   8,C   1,C   7)    -64.0221         0.010720   
    185. D(H  30,C   8,C   1,C   4)    176.0185         0.010720   
    186. D(H  30,C   8,C   1,C   2)     54.1236         0.010720   
    187. D(H  33,C   9,C   4,C   6)    132.7279         0.015741   
    188. D(H  33,C   9,C   4,C   1)    -45.5524         0.015741   
    189. D(C  11,C   9,C   4,C   6)    -50.6583         0.015741   
    190. D(C  11,C   9,C   4,C   1)    131.0613         0.015741   
    191. D(H  36,C  10,C   6,C   4)   -135.3435         0.012712   
    192. D(H  35,C  10,C   6,C   5)    165.3907         0.012712   
    193. D(H  35,C  10,C   6,C   4)    -14.4288         0.012712   
    194. D(H  34,C  10,C   6,C   5)    -73.7314         0.012712   
    195. D(H  34,C  10,C   6,C   4)    106.4491         0.012712   
    196. D(H  37,C  11,C   9,H  33)    175.7679         0.039493   
    197. D(H  37,C  11,C   9,C   4)     -0.7166         0.039493   
    198. D(C  12,C  11,C   9,H  33)     -2.5845         0.039493   
    199. D(C  12,C  11,C   9,C   4)   -179.0689         0.039493   
    200. D(C  14,C  12,C  11,H  37)     -1.1202         0.018032   
    201. D(C  14,C  12,C  11,C   9)    177.2758         0.018032   
    202. D(C  13,C  12,C  11,H  37)    178.8826         0.018032   
    203. D(C  13,C  12,C  11,C   9)     -2.7213         0.018032   
    204. D(H  38,C  13,C  12,C  14)      3.7230         0.012885   
    205. D(H  38,C  13,C  12,C  11)   -176.2800         0.012885   
    206. D(H  40,C  13,C  12,C  11)     63.2655         0.012885   
    207. D(H  39,C  13,C  12,C  14)    124.2467         0.012885   
    208. D(H  39,C  13,C  12,C  11)    -55.7563         0.012885   
    209. D(H  41,C  14,C  12,C  13)   -179.8209         0.035101   
    210. D(H  41,C  14,C  12,C  11)      0.1821         0.035101   
    211. D(C  15,C  14,C  12,C  13)      0.3386         0.035101   
    212. D(C  15,C  14,C  12,C  11)   -179.6584         0.035101   
    213. D(H  42,C  15,C  14,H  41)   -179.8641         0.020439   
    214. D(H  42,C  15,C  14,C  12)     -0.0204         0.020439   
    215. D(C  16,C  15,C  14,H  41)      0.0104         0.020439   
    216. D(C  16,C  15,C  14,C  12)    179.8541         0.020439   
    217. D(H  43,C  16,C  15,H  42)    179.9869         0.037316   
    218. D(H  43,C  16,C  15,C  14)      0.1140         0.037316   
    219. D(C  17,C  16,C  15,H  42)     -0.0705         0.037316   
    220. D(C  17,C  16,C  15,C  14)   -179.9435         0.037316   
    221. D(C  19,C  17,C  16,H  43)      0.0670         0.017928   
    222. D(C  19,C  17,C  16,C  15)   -179.8769         0.017928   
    223. D(C  18,C  17,C  16,H  43)   -179.9689         0.017928   
    224. D(C  18,C  17,C  16,C  15)      0.0871         0.017928   
    225. D(H  46,C  18,C  17,C  16)     59.2154         0.012703   
    226. D(H  45,C  18,C  17,C  19)     -0.1736         0.012703   
    227. D(H  45,C  18,C  17,C  16)    179.8636         0.012703   
    228. D(H  44,C  18,C  17,C  19)    120.0783         0.012703   
    229. D(H  44,C  18,C  17,C  16)    -59.8846         0.012703   
    230. D(H  47,C  19,C  17,C  18)   -179.0814         0.039512   
    231. D(H  47,C  19,C  17,C  16)      0.8811         0.039512   
    232. D(C  20,C  19,C  17,C  18)      0.3514         0.039512   
    233. D(C  20,C  19,C  17,C  16)   -179.6861         0.039512   
    234. D(H  49,C  20,C  19,C  17)    -64.0494         0.012883   
    235. D(H  48,C  20,C  19,H  47)   -125.4598         0.012883   
    236. D(H  48,C  20,C  19,C  17)     55.0841         0.012883   
    237. D(O   0,C  20,C  19,H  47)     -2.1086         0.012883   
    238. D(O   0,C  20,C  19,C  17)    178.4353         0.012883   
    239. D(H  49,C  20,O   0,H  50)   -175.3369         0.021659   
    240. D(H  48,C  20,O   0,H  50)     68.9567         0.021659   
    241. D(C  19,C  20,O   0,H  50)    -54.5559         0.021659   
    -----------------------------------------------------------------

Number of atoms                         .... 51
Number of degrees of freedom            .... 241


         *************************************************************
         *                GEOMETRY OPTIMIZATION CYCLE   1            *
         *************************************************************
---------------------------------
CARTESIAN COORDINATES (ANGSTROEM)
---------------------------------
  O      8.230330    1.267008    1.415216
  C     -4.385864    0.512669   -1.853722
  C     -5.483157    1.542912   -1.555352
  C     -6.207122    1.236441   -0.254167
  C     -3.534659    0.258564   -0.614389
  C     -5.216465    1.324370    0.898142
  C     -3.929834    0.594436    0.620303
  C     -3.505486    1.073306   -2.979116
  C     -5.015387   -0.806970   -2.323185
  C     -2.268334   -0.418539   -0.885212
  C     -3.144148    0.280825    1.861087
  C     -1.072575   -0.018210   -0.425372
  C      0.196299   -0.652516   -0.689523
  C      0.192005   -1.910741   -1.505826
  C      1.321902   -0.082862   -0.189735
  C      2.668918   -0.529969   -0.331492
  C      3.712792    0.128455    0.213819
  C      5.102793   -0.250355    0.119990
  C      5.450421   -1.489867   -0.653498
  C      6.033331    0.507615    0.720804
  C      7.514411    0.271072    0.722520
  H     -6.190368    1.567724   -2.387387
  H     -5.026971    2.532647   -1.475859
  H     -6.640569    0.236222   -0.293271
  H     -7.023460    1.945606   -0.100355
  H     -5.669870    0.932069    1.812122
  H     -4.974323    2.376370    1.089377
  H     -2.984302    1.967316   -2.642914
  H     -2.761407    0.349001   -3.299626
  H     -4.121393    1.334750   -3.837683
  H     -5.680940   -0.625694   -3.165018
  H     -4.251012   -1.509687   -2.644734
  H     -5.585206   -1.272853   -1.523341
  H     -2.327782   -1.269060   -1.550279
  H     -2.677854    1.184764    2.254419
  H     -2.366263   -0.453110    1.672692
  H     -3.810107   -0.103967    2.633269
  H     -1.027152    0.875959    0.182479
  H      1.183274   -2.342053   -1.592423
  H     -0.464108   -2.650705   -1.048727
  H     -0.178964   -1.704035   -2.509800
  H      1.202298    0.825994    0.389296
  H      2.849022   -1.429268   -0.900281
  H      3.512242    1.029354    0.781153
  H      4.957250   -2.354540   -0.211677
  H      6.520459   -1.669131   -0.655009
  H      5.111669   -1.396154   -1.684522
  H      5.720942    1.382201    1.277278
  H      7.888354    0.191397   -0.312714
  H      7.756499   -0.664495    1.238926
  H      7.996688    2.126635    1.047869

----------------------------
CARTESIAN COORDINATES (A.U.)
----------------------------
  NO LB      ZA    FRAG     MASS         X           Y           Z
   0 O     8.0000    0    15.999   15.553070    2.394299    2.674371
   1 C     6.0000    0    12.011   -8.288081    0.968805   -3.503026
   2 C     6.0000    0    12.011  -10.361665    2.915681   -2.939189
   3 C     6.0000    0    12.011  -11.729760    2.336535   -0.480306
   4 C     6.0000    0    12.011   -6.679537    0.488615   -1.161028
   5 C     6.0000    0    12.011   -9.857689    2.502697    1.697243
   6 C     6.0000    0    12.011   -7.426310    1.123322    1.172203
   7 C     6.0000    0    12.011   -6.624408    2.028254   -5.629714
   8 C     6.0000    0    12.011   -9.477707   -1.524953   -4.390184
   9 C     6.0000    0    12.011   -4.286531   -0.790923   -1.672809
  10 C     6.0000    0    12.011   -5.941579    0.530682    3.516944
  11 C     6.0000    0    12.011   -2.026873   -0.034412   -0.803836
  12 C     6.0000    0    12.011    0.370952   -1.233077   -1.303009
  13 C     6.0000    0    12.011    0.362837   -3.610777   -2.845598
  14 C     6.0000    0    12.011    2.498032   -0.156587   -0.358548
  15 C     6.0000    0    12.011    5.043525   -1.001497   -0.626429
  16 C     6.0000    0    12.011    7.016160    0.242745    0.404059
  17 C     6.0000    0    12.011    9.642881   -0.473102    0.226748
  18 C     6.0000    0    12.011   10.299803   -2.815441   -1.234932
  19 C     6.0000    0    12.011   11.401344    0.959253    1.362122
  20 C     6.0000    0    12.011   14.200179    0.512252    1.365365
  21 H     1.0000    0     1.008  -11.698099    2.962570   -4.511508
  22 H     1.0000    0     1.008   -9.499599    4.786009   -2.788970
  23 H     1.0000    0     1.008  -12.548857    0.446395   -0.554201
  24 H     1.0000    0     1.008  -13.272416    3.676662   -0.189643
  25 H     1.0000    0     1.008  -10.714501    1.761355    3.424415
  26 H     1.0000    0     1.008   -9.400108    4.490688    2.058624
  27 H     1.0000    0     1.008   -5.639513    3.717688   -4.994384
  28 H     1.0000    0     1.008   -5.218302    0.659516   -6.235390
  29 H     1.0000    0     1.008   -7.788305    2.522311   -7.252170
  30 H     1.0000    0     1.008  -10.735420   -1.182390   -5.981017
  31 H     1.0000    0     1.008   -8.033248   -2.852895   -4.997822
  32 H     1.0000    0     1.008  -10.554509   -2.405343   -2.878698
  33 H     1.0000    0     1.008   -4.398870   -2.398177   -2.929603
  34 H     1.0000    0     1.008   -5.060411    2.238879    4.260235
  35 H     1.0000    0     1.008   -4.471589   -0.856254    3.160930
  36 H     1.0000    0     1.008   -7.200058   -0.196470    4.976157
  37 H     1.0000    0     1.008   -1.941035    1.655323    0.344835
  38 H     1.0000    0     1.008    2.236064   -4.425838   -3.009243
  39 H     1.0000    0     1.008   -0.877037   -5.009107   -1.981807
  40 H     1.0000    0     1.008   -0.338193   -3.220160   -4.742835
  41 H     1.0000    0     1.008    2.272014    1.560902    0.735663
  42 H     1.0000    0     1.008    5.383871   -2.700925   -1.701285
  43 H     1.0000    0     1.008    6.637175    1.945198    1.476165
  44 H     1.0000    0     1.008    9.367846   -4.449436   -0.400012
  45 H     1.0000    0     1.008   12.321882   -3.154201   -1.237787
  46 H     1.0000    0     1.008    9.659654   -2.638349   -3.183285
  47 H     1.0000    0     1.008   10.811014    2.611981    2.413705
  48 H     1.0000    0     1.008   14.906829    0.361687   -0.590944
  49 H     1.0000    0     1.008   14.657659   -1.255714    2.341230
  50 H     1.0000    0     1.008   15.111551    4.018758    1.980186

--------------------------------
INTERNAL COORDINATES (ANGSTROEM)
--------------------------------
 O      0   0   0     0.000000000000     0.00000000     0.00000000
 C      1   0   0    13.054628813004     0.00000000     0.00000000
 C      2   1   0     1.534430727917   127.12886630     0.00000000
 C      3   2   1     1.520240564421   111.81601484   267.42675967
 C      2   1   3     1.524816065215    42.82953308   279.51836052
 C      4   3   2     1.522153058433   109.04823001    62.83032284
 C      5   2   1     1.339193410586   122.87649662   140.08618182
 C      2   1   5     1.534891414491    66.93215236   176.03576472
 C      2   1   5     1.535624741169   121.49246347   274.84809288
 C      5   2   1     1.461297348917   114.22601245   318.36650599
 C      7   5   2     1.501732310008   123.71081383   176.25904241
 C     10   5   2     1.342220825678   124.77269447   131.06133420
 C     12  10   5     1.442969698745   126.12653683   180.93105929
 C     13  12  10     1.499833084458   117.76760676   357.27868932
 C     13  12  10     1.356935298429   118.52028549   177.27584108
 C     15  13  12     1.426342650365   127.96528490   180.34160177
 C     16  15  13     1.349280936537   122.51320959   179.85408244
 C     17  16  15     1.443746609174   126.19599448   180.05650490
 C     18  17  16     1.501838897562   118.22095879     0.08712452
 C     18  17  16     1.342161391371   119.35605251   180.12309255
 C      1   2   3     1.408636298510    49.06845225   180.01856505
 H      3   2   1     1.092265930358   109.27760830   144.92118916
 H      3   2   1     1.092702738212   108.88956012    27.44669972
 H      4   3   2     1.090799822603   110.08434403   302.31344019
 H      4   3   2     1.092236565047   110.21636082   183.69855988
 H      6   4   3     1.093085707286   110.01669558   190.29927072
 H      6   4   3     1.096314675439   109.34343079    73.22379983
 H      8   2   1     1.088079710881   110.38349301   301.55182905
 H      8   2   1     1.086737411320   111.43968607    61.69129934
 H      8   2   1     1.088499905347   109.96885687   181.86412025
 H      9   2   1     1.088349379278   110.12241253   221.96484548
 H      9   2   1     1.086955780383   110.96046512   341.47979369
 H      9   2   1     1.086963863587   110.99402121   101.59229599
 H     10   5   2     1.081311734503   115.51878828   314.44757212
 H     11   7   5     1.090525455167   110.40249069   106.44905695
 H     11   7   5     1.085936632965   111.87438946   345.57117973
 H     11   7   5     1.089876605460   109.84234766   224.65650281
 H     12  10   5     1.082166605181   118.44232921   359.28344533
 H     14  13  12     1.084501239499   111.99222771   183.71997327
 H     14  13  12     1.089482021687   110.06914658   304.24370221
 H     14  13  12     1.090096373642   110.06966465    63.26554788
 H     15  13  12     1.084251594376   117.19956691     0.18208774
 H     16  15  13     1.079211039639   118.11157534     0.00000000
 H     17  16  15     1.083377659792   118.30826428     0.11396863
 H     19  18  17     1.089073833212   109.96934819   300.11540334
 H     19  18  17     1.084951029521   111.43044403   179.86357562
 H     19  18  17     1.089287299699   110.15079535    59.21539382
 H     20  18  17     1.082659000331   119.09375800     0.88105704
 H     21   1   2     1.103581347357   109.88455678   115.98132692
 H     21   1   2     1.095703851657   105.04860109   231.68771780
 H      1   2   3     0.963581965987    73.84471467   313.82664272

---------------------------
INTERNAL COORDINATES (A.U.)
---------------------------
 O      0   0   0     0.000000000000     0.00000000     0.00000000
 C      1   0   0    24.669673236575     0.00000000     0.00000000
 C      2   1   0     2.899653847236   127.12886630     0.00000000
 C      3   2   1     2.872838324433   111.81601484   267.42675967
 C      2   1   3     2.881484767859    42.82953308   279.51836052
 C      4   3   2     2.876452414349   109.04823001    62.83032284
 C      5   2   1     2.530708786360   122.87649662   140.08618182
 C      2   1   5     2.900524418696    66.93215236   176.03576472
 C      2   1   5     2.901910205284   121.49246347   274.84809288
 C      5   2   1     2.761451789677   114.22601245   318.36650599
 C      7   5   2     2.837862792376   123.71081383   176.25904241
 C     10   5   2     2.536429771776   124.77269447   131.06133420
 C     12  10   5     2.726817550174   126.12653683   180.93105929
 C     13  12  10     2.834273776220   117.76760676   357.27868932
 C     13  12  10     2.564236095482   118.52028549   177.27584108
 C     15  13  12     2.695396982321   127.96528490   180.34160177
 C     16  15  13     2.549771447776   122.51320959   179.85408244
 C     17  16  15     2.728285698116   126.19599448   180.05650490
 C     18  17  16     2.838064213663   118.22095879     0.08712452
 C     18  17  16     2.536317457214   119.35605251   180.12309255
 C      1   2   3     2.661936826485    49.06845225   180.01856505
 H      3   2   1     2.064083473790   109.27760830   144.92118916
 H      3   2   1     2.064908921006   108.88956012    27.44669972
 H      4   3   2     2.061312931650   110.08434403   302.31344019
 H      4   3   2     2.064027981394   110.21636082   183.69855988
 H      6   4   3     2.065632627674   110.01669558   190.29927072
 H      6   4   3     2.071734493179   109.34343079    73.22379983
 H      8   2   1     2.056172665441   110.38349301   301.55182905
 H      8   2   1     2.053636086881   111.43968607    61.69129934
 H      8   2   1     2.056966717904   109.96885687   181.86412025
 H      9   2   1     2.056682264859   110.12241253   221.96484548
 H      9   2   1     2.054048744607   110.96046512   341.47979369
 H      9   2   1     2.054064019648   110.99402121   101.59229599
 H     10   5   2     2.043383043607   115.51878828   314.44757212
 H     11   7   5     2.060794452336   110.40249069   106.44905695
 H     11   7   5     2.052122835096   111.87438946   345.57117973
 H     11   7   5     2.059568304087   109.84234766   224.65650281
 H     12  10   5     2.044998515068   118.44232921   359.28344533
 H     14  13  12     2.049410334552   111.99222771   183.71997327
 H     14  13  12     2.058822648820   110.06914658   304.24370221
 H     14  13  12     2.059983605764   110.06966465    63.26554788
 H     15  13  12     2.048938573638   117.19956691     0.18208774
 H     16  15  13     2.039413305623   118.11157534     0.00000000
 H     17  16  15     2.047287076614   118.30826428     0.11396863
 H     19  18  17     2.058051284390   109.96934819   300.11540334
 H     19  18  17     2.050260314511   111.43044403   179.86357562
 H     19  18  17     2.058454677589   110.15079535    59.21539382
 H     20  18  17     2.045929007051   119.09375800     0.88105704
 H     21   1   2     2.085466513008   109.88455678   115.98132692
 H     21   1   2     2.070580203515   105.04860109   231.68771780
 H      1   2   3     1.820906023301    73.84471467   313.82664272

---------------------
BASIS SET INFORMATION
---------------------
There are 3 groups of distinct atoms

 Group   1 Type O   : 11s6p2d contracted to 5s3p2d pattern {62111/411/11}
 Group   2 Type C   : 11s6p1d contracted to 5s3p1d pattern {62111/411/1}
 Group   3 Type H   : 5s contracted to 3s pattern {311}

Atom   0O    basis set group =>   1
Atom   1C    basis set group =>   2
Atom   2C    basis set group =>   2
Atom   3C    basis set group =>   2
Atom   4C    basis set group =>   2
Atom   5C    basis set group =>   2
Atom   6C    basis set group =>   2
Atom   7C    basis set group =>   2
Atom   8C    basis set group =>   2
Atom   9C    basis set group =>   2
Atom  10C    basis set group =>   2
Atom  11C    basis set group =>   2
Atom  12C    basis set group =>   2
Atom  13C    basis set group =>   2
Atom  14C    basis set group =>   2
Atom  15C    basis set group =>   2
Atom  16C    basis set group =>   2
Atom  17C    basis set group =>   2
Atom  18C    basis set group =>   2
Atom  19C    basis set group =>   2
Atom  20C    basis set group =>   2
Atom  21H    basis set group =>   3
Atom  22H    basis set group =>   3
Atom  23H    basis set group =>   3
Atom  24H    basis set group =>   3
Atom  25H    basis set group =>   3
Atom  26H    basis set group =>   3
Atom  27H    basis set group =>   3
Atom  28H    basis set group =>   3
Atom  29H    basis set group =>   3
Atom  30H    basis set group =>   3
Atom  31H    basis set group =>   3
Atom  32H    basis set group =>   3
Atom  33H    basis set group =>   3
Atom  34H    basis set group =>   3
Atom  35H    basis set group =>   3
Atom  36H    basis set group =>   3
Atom  37H    basis set group =>   3
Atom  38H    basis set group =>   3
Atom  39H    basis set group =>   3
Atom  40H    basis set group =>   3
Atom  41H    basis set group =>   3
Atom  42H    basis set group =>   3
Atom  43H    basis set group =>   3
Atom  44H    basis set group =>   3
Atom  45H    basis set group =>   3
Atom  46H    basis set group =>   3
Atom  47H    basis set group =>   3
Atom  48H    basis set group =>   3
Atom  49H    basis set group =>   3
Atom  50H    basis set group =>   3
---------------------------------
AUXILIARY/J BASIS SET INFORMATION
---------------------------------
There are 3 groups of distinct atoms

 Group   1 Type O   : 8s3p3d contracted to 6s3p3d pattern {311111/111/111}
 Group   2 Type C   : 8s3p3d contracted to 6s3p3d pattern {311111/111/111}
 Group   3 Type H   : 5s2p contracted to 3s1p pattern {311/2}

Atom   0O    basis set group =>   1
Atom   1C    basis set group =>   2
Atom   2C    basis set group =>   2
Atom   3C    basis set group =>   2
Atom   4C    basis set group =>   2
Atom   5C    basis set group =>   2
Atom   6C    basis set group =>   2
Atom   7C    basis set group =>   2
Atom   8C    basis set group =>   2
Atom   9C    basis set group =>   2
Atom  10C    basis set group =>   2
Atom  11C    basis set group =>   2
Atom  12C    basis set group =>   2
Atom  13C    basis set group =>   2
Atom  14C    basis set group =>   2
Atom  15C    basis set group =>   2
Atom  16C    basis set group =>   2
Atom  17C    basis set group =>   2
Atom  18C    basis set group =>   2
Atom  19C    basis set group =>   2
Atom  20C    basis set group =>   2
Atom  21H    basis set group =>   3
Atom  22H    basis set group =>   3
Atom  23H    basis set group =>   3
Atom  24H    basis set group =>   3
Atom  25H    basis set group =>   3
Atom  26H    basis set group =>   3
Atom  27H    basis set group =>   3
Atom  28H    basis set group =>   3
Atom  29H    basis set group =>   3
Atom  30H    basis set group =>   3
Atom  31H    basis set group =>   3
Atom  32H    basis set group =>   3
Atom  33H    basis set group =>   3
Atom  34H    basis set group =>   3
Atom  35H    basis set group =>   3
Atom  36H    basis set group =>   3
Atom  37H    basis set group =>   3
Atom  38H    basis set group =>   3
Atom  39H    basis set group =>   3
Atom  40H    basis set group =>   3
Atom  41H    basis set group =>   3
Atom  42H    basis set group =>   3
Atom  43H    basis set group =>   3
Atom  44H    basis set group =>   3
Atom  45H    basis set group =>   3
Atom  46H    basis set group =>   3
Atom  47H    basis set group =>   3
Atom  48H    basis set group =>   3
Atom  49H    basis set group =>   3
Atom  50H    basis set group =>   3


           ************************************************************
           *        Program running with 16 parallel MPI-processes    *
           *              working on a common directory               *
           ************************************************************
------------------------------------------------------------------------------
                             ORCA STARTUP CALCULATIONS
                           -- RI-GTO INTEGRALS CHOSEN --
------------------------------------------------------------------------------
------------------------------------------------------------------------------
                   ___                                                        
                  /   \      - P O W E R E D   B Y -                         
                 /     \                                                     
                 |  |  |   _    _      __       _____    __    __             
                 |  |  |  | |  | |    /  \     |  _  \  |  |  /  |          
                  \  \/   | |  | |   /    \    | | | |  |  | /  /          
                 / \  \   | |__| |  /  /\  \   | |_| |  |  |/  /          
                |  |  |   |  __  | /  /__\  \  |    /   |      \           
                |  |  |   | |  | | |   __   |  |    \   |  |\   \          
                \     /   | |  | | |  |  |  |  | |\  \  |  | \   \       
                 \___/    |_|  |_| |__|  |__|  |_| \__\ |__|  \__/        
                                                                              
                      - O R C A' S   B I G   F R I E N D -                    
                                      &                                       
                       - I N T E G R A L  F E E D E R -                       
                                                                              
 v1 FN, 2020, v2 2021, v3 2022-2024                                           
------------------------------------------------------------------------------


----------------------
SHARK INTEGRAL PACKAGE
----------------------

Number of atoms                             ...     51
Number of basis functions                   ...    494
Number of shells                            ...    280
Maximum angular momentum                    ...      2
Integral batch strategy                     ... SHARK/LIBINT Hybrid
RI-J (if used) integral strategy            ... SPLIT-RIJ (Revised 2003 algorithm where possible)
Printlevel                                  ...      1
Contraction scheme used                     ... SEGMENTED contraction
Prescreening option                         ... SCHWARTZ
   Thresh                                   ... 2.500e-11
   Tcut                                     ... 2.500e-12
   Tpresel                                  ... 2.500e-12 
Coulomb Range Separation                    ... NOT USED
Exchange Range Separation                   ... NOT USED
Multipole approximations                    ... NOT USED
Finite Nucleus Model                        ... NOT USED
CABS basis                                  ... NOT available
Auxiliary Coulomb fitting basis             ... AVAILABLE
   # of basis functions in Aux-J            ...    810
   # of shells in Aux-J                     ...    372
   Maximum angular momentum in Aux-J        ...      2
Auxiliary J/K fitting basis                 ... NOT available
Auxiliary Correlation fitting basis         ... NOT available
Auxiliary 'external' fitting basis          ... NOT available

Checking pre-screening integrals            ... done (  0.0 sec) Dimension = 280
Check shell pair data                       ... done (  0.0 sec)
Shell pair information
Shell pair cut-off parameter TPreSel        ...   2.5e-12
Total number of shell pairs                 ...     39340
Shell pairs after pre-screening             ...     24291
Total number of primitive shell pairs       ...    140737
Primitive shell pairs kept                  ...     55718
          la=0 lb=0:  11252 shell pairs
          la=1 lb=0:   8242 shell pairs
          la=1 lb=1:   1504 shell pairs
          la=2 lb=0:   2300 shell pairs
          la=2 lb=1:    868 shell pairs
          la=2 lb=2:    125 shell pairs

Calculating one electron integrals          ... done (  0.0 sec)
Calculating RI/J V-Matrix + Cholesky decomp.... done (  0.0 sec)
Calculating Nuclear repulsion               ... done (  0.0 sec) ENN=   1563.715020364211 Eh

Diagonalization of the overlap matrix:
Smallest eigenvalue                        ... 2.001e-05
Time for diagonalization                   ...    0.029 sec
Threshold for overlap eigenvalues          ... 1.000e-07
Number of eigenvalues below threshold      ... 0
Time for construction of square roots      ...    0.012 sec
Total time needed                          ...    0.044 sec

-------------------
DFT GRID GENERATION
-------------------

General Integration Accuracy     IntAcc      ... 4.959
Radial Grid Type                 RadialGrid  ... OptM3 with GC (2021)
Angular Grid (max. ang.)         AngularGrid ... 6 (Lebedev-590)
Angular grid pruning method      GridPruning ... 4 (adaptive)
Weight generation scheme         WeightScheme... mBecke (2022)
Basis function cutoff            BFCut       ... 1.0000e-11
Integration weight cutoff        WCut        ... 1.0000e-14
Partially contracted basis set               ... off
Rotationally invariant grid construction     ... off
Angular grids for H and He will be reduced by one unit
Diffuse basis detected: some atoms will have their outermost
                        angular grid increased by 1.

Total number of grid points                  ...   552561
Total number of batches                      ...     8658
Average number of points per batch           ...       63
Average number of grid points per atom       ...    10835
Initializing property integral containers    ... done (  0.0 sec)

SHARK setup successfully completed in   4.0 seconds

Maximum memory used throughout the entire STARTUP-calculation: 123.9 MB


           ************************************************************
           *        Program running with 16 parallel MPI-processes    *
           *              working on a common directory               *
           ************************************************************
-------------------------------------------------------------------------------
                                 ORCA GUESS
                   Start orbitals & Density for SCF / CASSCF
-------------------------------------------------------------------------------

------------
SCF SETTINGS
------------
Hamiltonian:
 Density Functional     Method          .... DFT(GTOs)
 Exchange Functional    Exchange        .... B973C
 Correlation Functional Correlation     .... B973C
 Gradients option       PostSCFGGA      .... off
 RI-approximation to the Coulomb term is turned on
   Number of AuxJ basis functions       .... 810


General Settings:
 Integral files         IntName         .... m1_00_Vitamin_A-GFN2_004-B97-3C-TZ
 Hartree-Fock type      HFTyp           .... RHF
 Total Charge           Charge          ....    0
 Multiplicity           Mult            ....    1
 Number of Electrons    NEL             ....  158
 Basis Dimension        Dim             ....  494
 Nuclear Repulsion      ENuc            ....   1563.7150203642 Eh

Convergence Acceleration:
 AO-DIIS                CNVDIIS         .... on
   Start iteration      DIISMaxIt       ....    12
   Startup error        DIISStart       ....  0.200000
   # of expansion vecs  DIISMaxEq       ....     5
   Bias factor          DIISBfac        ....   1.050
   Max. coefficient     DIISMaxC        ....  10.000
 MO-DIIS                CNVKDIIS        .... off
 Trust-Rad. Augm. Hess. CNVTRAH         .... off
 SOSCF                  CNVSOSCF        .... on
   Start iteration      SOSCFMaxIt      ....   150
   Startup grad/error   SOSCFStart      ....  0.003300
   Hessian update       SOSCFHessUp     .... L-BFGS
 Level Shifting         CNVShift        .... on
   Level shift para.    LevelShift      ....    0.2500
   Turn off err/grad.   ShiftErr        ....    0.0010
 Zerner damping         CNVZerner       .... off
 Static damping         CNVDamp         .... on
   Fraction old density DampFac         ....    0.7000
   Max. Damping (<1)    DampMax         ....    0.9800
   Min. Damping (>=0)   DampMin         ....    0.0000
   Turn off err/grad.   DampErr         ....    0.1000

SCF Procedure:
 Maximum # iterations   MaxIter         ....   800
 SCF integral mode      SCFMode         .... Direct
   Integral package                     .... SHARK and LIBINT hybrid scheme
 Reset frequency        DirectResetFreq ....    20
 Integral Threshold     Thresh          ....  2.500e-11 Eh
 Primitive CutOff       TCut            ....  2.500e-12 Eh

Convergence Tolerance:
 Convergence Check Mode ConvCheckMode   .... Total+1el-Energy
 Convergence forced     ConvForced      .... 0
 Energy Change          TolE            ....  1.000e-08 Eh
 1-El. energy change                    ....  1.000e-05 Eh
 Orbital Gradient       TolG            ....  1.000e-05
 Orbital Rotation angle TolX            ....  1.000e-05
 DIIS Error             TolErr          ....  5.000e-07

--------------------------------
INITIAL GUESS: MINIMAL BASIS EHT
--------------------------------
The minimal basis has 135 functions
EHT matrix was diagonalized
Basis set overlap was calculated now projecting the orbitals
Using GuessMode=FMatrix for the initial guess
C*T matrix was formed
Effective Fockian was calculated
Effective Fockian was diagonalized
Initial density was built
                      ------------------
                      INITIAL GUESS DONE
                      ------------------
             **** ENERGY FILE WAS UPDATED (m1_00_Vitamin_A-GFN2_004-B97-3C-TZ.en.tmp) ****
Finished Guess after   0.3 sec
Maximum memory used throughout the entire GUESS-calculation: 41.5 MB


           ************************************************************
           *        Program running with 16 parallel MPI-processes    *
           *              working on a common directory               *
           ************************************************************

-------------------------------------------------------------------------------------------
                                      ORCA LEAN-SCF
                              memory conserving SCF solver
-------------------------------------------------------------------------------------------

----------------------------------------D-I-I-S--------------------------------------------
Iteration    Energy (Eh)           Delta-E    RMSDP     MaxDP     DIISErr   Damp  Time(sec)
-------------------------------------------------------------------------------------------
               ***  Starting incremental Fock matrix formation  ***
    1    -852.6609054138343708     0.00e+00  4.15e-03  1.28e-01  4.72e-01  0.700   0.8
Warning: op=0 Small HOMO/LUMO gap (   0.080) - skipping pre-diagonalization
         Will do a full diagonalization
    2    -853.2854451252746912    -6.25e-01  4.43e-03  4.52e-01  3.32e-01  0.700   0.8
    3    -853.7061006081930827    -4.21e-01  2.59e-03  1.63e-01  2.32e-01  0.700   0.7
                               ***Turning on AO-DIIS***
    4    -853.9984819920177870    -2.92e-01  1.81e-03  9.77e-02  1.62e-01  0.700   0.7
    5    -854.1995741530545274    -2.01e-01  1.26e-03  5.33e-02  1.13e-01  0.700   0.7
    6    -854.3442162526007451    -1.45e-01  8.91e-04  3.24e-02  7.92e-02  0.700   0.7
    7    -854.4464089820930894    -1.02e-01  2.12e-03  7.67e-02  5.54e-02  0.000   0.7
    8    -854.6830746096779876    -2.37e-01  4.77e-04  6.61e-02  2.09e-02  0.000   0.8
    9    -854.6834879797374924    -4.13e-04  6.09e-05  3.69e-03  1.41e-02  0.000   0.7
                              *** Initializing SOSCF ***
---------------------------------------S-O-S-C-F--------------------------------------
Iteration    Energy (Eh)           Delta-E    RMSDP     MaxDP     MaxGrad    Time(sec)
--------------------------------------------------------------------------------------
   10    -854.6837269399625256    -2.39e-04  3.96e-05  4.30e-03  2.32e-03     0.8
               *** Restarting incremental Fock matrix formation ***
   11    -854.6837409011109230    -1.40e-05  7.26e-05  1.14e-02  1.42e-04     0.8
   12    -854.6837381641471438     2.74e-06  3.61e-05  5.54e-03  2.91e-04     0.7
   13    -854.6837419226444581    -3.76e-06  9.88e-06  7.47e-04  3.99e-05     0.6
   14    -854.6837417119572820     2.11e-07  5.87e-06  7.79e-04  9.82e-05     0.6
   15    -854.6837419712414885    -2.59e-07  3.35e-06  2.13e-04  4.03e-06     0.6
   16    -854.6837419721746301    -9.33e-10  2.91e-06  2.43e-04  1.18e-05     0.6
                 **** Energy Check signals convergence ****

               *****************************************************
               *                     SUCCESS                       *
               *           SCF CONVERGED AFTER  16 CYCLES          *
               *****************************************************

             **** ENERGY FILE WAS UPDATED (m1_00_Vitamin_A-GFN2_004-B97-3C-TZ.en.tmp) ****

----------------
TOTAL SCF ENERGY
----------------

Total Energy       :       -854.68374197217463 Eh          -23257.12699 eV

Components:
Nuclear Repulsion  :       1563.71502036421134 Eh           42550.84895 eV
Electronic Energy  :      -2418.39876233638597 Eh          -65807.97594 eV
One Electron Energy:      -4261.62858406211126 Eh         -115964.80931 eV
Two Electron Energy:       1843.22982172572529 Eh           50156.83337 eV

Virial components:
Potential Energy   :      -1706.30802702759047 Eh          -46431.00192 eV
Kinetic Energy     :        851.62428505541595 Eh           23173.87493 eV
Virial Ratio       :          2.00359249609299

DFT components:
N(Alpha)           :       78.999998821138 electrons
N(Beta)            :       78.999998821138 electrons
N(Total)           :      157.999997642277 electrons
E(XC)              :     -127.760353769963 Eh       

---------------
SCF CONVERGENCE
---------------

  Last Energy change         ...    9.3314e-10  Tolerance :   1.0000e-08
  Last MAX-Density change    ...    2.4317e-04  Tolerance :   1.0000e-07
  Last RMS-Density change    ...    2.9122e-06  Tolerance :   5.0000e-09
  Last DIIS Error            ...    2.3166e-03  Tolerance :   5.0000e-07
  Last Orbital Gradient      ...    1.1754e-05  Tolerance :   1.0000e-05
  Last Orbital Rotation      ...    1.8854e-05  Tolerance :   1.0000e-05


----------------
ORBITAL ENERGIES
----------------

  NO   OCC          E(Eh)            E(eV) 
   0   2.0000     -18.744520      -510.0643 
   1   2.0000      -9.941778      -270.5295 
   2   2.0000      -9.901663      -269.4379 
   3   2.0000      -9.899232      -269.3718 
   4   2.0000      -9.898983      -269.3650 
   5   2.0000      -9.890962      -269.1467 
   6   2.0000      -9.890335      -269.1297 
   7   2.0000      -9.890083      -269.1228 
   8   2.0000      -9.889952      -269.1193 
   9   2.0000      -9.887982      -269.0657 
  10   2.0000      -9.887703      -269.0581 
  11   2.0000      -9.886034      -269.0127 
  12   2.0000      -9.884757      -268.9779 
  13   2.0000      -9.884482      -268.9704 
  14   2.0000      -9.883975      -268.9566 
  15   2.0000      -9.882753      -268.9234 
  16   2.0000      -9.880417      -268.8598 
  17   2.0000      -9.879062      -268.8229 
  18   2.0000      -9.875014      -268.7128 
  19   2.0000      -9.874172      -268.6899 
  20   2.0000      -9.871028      -268.6043 
  21   2.0000      -0.946464       -25.7546 
  22   2.0000      -0.783479       -21.3196 
  23   2.0000      -0.767123       -20.8745 
  24   2.0000      -0.752411       -20.4742 
  25   2.0000      -0.719363       -19.5749 
  26   2.0000      -0.714888       -19.4531 
  27   2.0000      -0.694436       -18.8966 
  28   2.0000      -0.662593       -18.0301 
  29   2.0000      -0.652960       -17.7679 
  30   2.0000      -0.630747       -17.1635 
  31   2.0000      -0.620755       -16.8916 
  32   2.0000      -0.620042       -16.8722 
  33   2.0000      -0.610447       -16.6111 
  34   2.0000      -0.601536       -16.3686 
  35   2.0000      -0.561146       -15.2696 
  36   2.0000      -0.534060       -14.5325 
  37   2.0000      -0.514142       -13.9905 
  38   2.0000      -0.499325       -13.5873 
  39   2.0000      -0.486561       -13.2400 
  40   2.0000      -0.472013       -12.8441 
  41   2.0000      -0.461797       -12.5661 
  42   2.0000      -0.451981       -12.2990 
  43   2.0000      -0.433736       -11.8026 
  44   2.0000      -0.425765       -11.5857 
  45   2.0000      -0.418273       -11.3818 
  46   2.0000      -0.404989       -11.0203 
  47   2.0000      -0.402470       -10.9518 
  48   2.0000      -0.396650       -10.7934 
  49   2.0000      -0.389142       -10.5891 
  50   2.0000      -0.382980       -10.4214 
  51   2.0000      -0.379003       -10.3132 
  52   2.0000      -0.378169       -10.2905 
  53   2.0000      -0.376041       -10.2326 
  54   2.0000      -0.371811       -10.1175 
  55   2.0000      -0.359195        -9.7742 
  56   2.0000      -0.353832        -9.6283 
  57   2.0000      -0.350590        -9.5400 
  58   2.0000      -0.345376        -9.3982 
  59   2.0000      -0.344268        -9.3680 
  60   2.0000      -0.340269        -9.2592 
  61   2.0000      -0.329648        -8.9702 
  62   2.0000      -0.327200        -8.9036 
  63   2.0000      -0.324534        -8.8310 
  64   2.0000      -0.312216        -8.4958 
  65   2.0000      -0.309578        -8.4241 
  66   2.0000      -0.306256        -8.3337 
  67   2.0000      -0.300314        -8.1720 
  68   2.0000      -0.299698        -8.1552 
  69   2.0000      -0.296129        -8.0581 
  70   2.0000      -0.292132        -7.9493 
  71   2.0000      -0.280834        -7.6419 
  72   2.0000      -0.270828        -7.3696 
  73   2.0000      -0.261638        -7.1195 
  74   2.0000      -0.253268        -6.8918 
  75   2.0000      -0.236179        -6.4268 
  76   2.0000      -0.225946        -6.1483 
  77   2.0000      -0.200354        -5.4519 
  78   2.0000      -0.165103        -4.4927 
  79   0.0000      -0.080446        -2.1891 
  80   0.0000      -0.024387        -0.6636 
  81   0.0000       0.005157         0.1403 
  82   0.0000       0.020468         0.5570 
  83   0.0000       0.021710         0.5908 
  84   0.0000       0.028839         0.7847 
  85   0.0000       0.035476         0.9654 
  86   0.0000       0.037659         1.0248 
  87   0.0000       0.041951         1.1416 
  88   0.0000       0.049310         1.3418 
  89   0.0000       0.052078         1.4171 
*Only the first 10 virtual orbitals were printed.

                    ********************************
                    * MULLIKEN POPULATION ANALYSIS *
                    ********************************

-----------------------
MULLIKEN ATOMIC CHARGES
-----------------------
   0 O :   -0.558110
   1 C :   -0.048435
   2 C :   -0.308991
   3 C :   -0.332264
   4 C :    0.301672
   5 C :   -0.305098
   6 C :   -0.015825
   7 C :   -0.454597
   8 C :   -0.556305
   9 C :   -0.341538
  10 C :   -0.576805
  11 C :   -0.361811
  12 C :    0.275821
  13 C :   -0.574183
  14 C :   -0.230189
  15 C :   -0.101254
  16 C :   -0.295356
  17 C :    0.254361
  18 C :   -0.605028
  19 C :   -0.254911
  20 C :   -0.288184
  21 H :    0.175487
  22 H :    0.164519
  23 H :    0.167481
  24 H :    0.172835
  25 H :    0.168641
  26 H :    0.159264
  27 H :    0.169285
  28 H :    0.167583
  29 H :    0.170647
  30 H :    0.170092
  31 H :    0.162692
  32 H :    0.176330
  33 H :    0.176132
  34 H :    0.166622
  35 H :    0.214240
  36 H :    0.155779
  37 H :    0.169033
  38 H :    0.173461
  39 H :    0.181285
  40 H :    0.178868
  41 H :    0.132500
  42 H :    0.153469
  43 H :    0.135973
  44 H :    0.185257
  45 H :    0.194463
  46 H :    0.183708
  47 H :    0.171134
  48 H :    0.174620
  49 H :    0.189161
  50 H :    0.416472
Sum of atomic charges:   -0.0000000

--------------------------------
MULLIKEN REDUCED ORBITAL CHARGES
--------------------------------
  0 O s       :     3.810973  s :     3.810973
      pz      :     1.729927  p :     4.717877
      px      :     1.753451
      py      :     1.234499
      dz2     :    -0.001084  d :     0.029260
      dxz     :     0.006508
      dyz     :     0.010188
      dx2y2   :     0.006070
      dxy     :     0.007577

  1 C s       :     3.004697  s :     3.004697
      pz      :     0.993325  p :     2.986966
      px      :     1.022301
      py      :     0.971340
      dz2     :     0.010319  d :     0.056772
      dxz     :     0.014625
      dyz     :     0.009797
      dx2y2   :     0.008553
      dxy     :     0.013477

  2 C s       :     3.157783  s :     3.157783
      pz      :     1.051528  p :     3.106034
      px      :     1.032365
      py      :     1.022141
      dz2     :     0.009861  d :     0.045174
      dxz     :     0.013707
      dyz     :     0.003668
      dx2y2   :     0.007619
      dxy     :     0.010319

  3 C s       :     3.200096  s :     3.200096
      pz      :     0.931084  p :     3.087393
      px      :     1.035578
      py      :     1.120730
      dz2     :     0.012250  d :     0.044776
      dxz     :     0.010758
      dyz     :     0.004192
      dx2y2   :     0.005333
      dxy     :     0.012243

  4 C s       :     3.082529  s :     3.082529
      pz      :     0.808041  p :     2.566863
      px      :     0.923595
      py      :     0.835227
      dz2     :     0.013136  d :     0.048935
      dxz     :     0.014809
      dyz     :     0.009072
      dx2y2   :     0.005340
      dxy     :     0.006578

  5 C s       :     3.134550  s :     3.134550
      pz      :     1.069274  p :     3.124547
      px      :     0.970569
      py      :     1.084704
      dz2     :     0.010035  d :     0.046001
      dxz     :     0.011197
      dyz     :     0.005375
      dx2y2   :     0.010802
      dxy     :     0.008593

  6 C s       :     3.174325  s :     3.174325
      pz      :     0.860508  p :     2.793893
      px      :     0.981774
      py      :     0.951610
      dz2     :     0.013067  d :     0.047607
      dxz     :     0.014117
      dyz     :     0.009518
      dx2y2   :     0.005260
      dxy     :     0.005644

  7 C s       :     3.196859  s :     3.196859
      pz      :     1.047645  p :     3.219689
      px      :     1.067844
      py      :     1.104200
      dz2     :     0.006823  d :     0.038050
      dxz     :     0.010913
      dyz     :     0.005841
      dx2y2   :     0.002868
      dxy     :     0.011604

  8 C s       :     3.262636  s :     3.262636
      pz      :     1.128925  p :     3.255898
      px      :     1.105781
      py      :     1.021191
      dz2     :     0.004670  d :     0.037771
      dxz     :     0.011588
      dyz     :     0.006824
      dx2y2   :     0.003934
      dxy     :     0.010755

  9 C s       :     3.214326  s :     3.214326
      pz      :     1.043200  p :     3.085190
      px      :     1.100558
      py      :     0.941432
      dz2     :     0.003847  d :     0.042022
      dxz     :     0.008386
      dyz     :     0.007259
      dx2y2   :     0.012035
      dxy     :     0.010495

 10 C s       :     3.305392  s :     3.305392
      pz      :     1.024583  p :     3.233011
      px      :     1.090888
      py      :     1.117540
      dz2     :     0.007010  d :     0.038402
      dxz     :     0.010834
      dyz     :     0.007084
      dx2y2   :     0.002848
      dxy     :     0.010626

 11 C s       :     3.329187  s :     3.329187
      pz      :     0.953430  p :     2.989598
      px      :     1.068877
      py      :     0.967291
      dz2     :     0.003754  d :     0.043026
      dxz     :     0.009181
      dyz     :     0.006586
      dx2y2   :     0.012622
      dxy     :     0.010884

 12 C s       :     3.161880  s :     3.161880
      pz      :     0.845757  p :     2.513026
      px      :     0.954402
      py      :     0.712867
      dz2     :     0.006242  d :     0.049274
      dxz     :     0.009963
      dyz     :     0.006216
      dx2y2   :     0.012642
      dxy     :     0.014211

 13 C s       :     3.272950  s :     3.272950
      pz      :     1.074541  p :     3.263218
      px      :     1.172513
      py      :     1.016164
      dz2     :     0.009308  d :     0.038016
      dxz     :     0.004759
      dyz     :     0.008007
      dx2y2   :     0.006459
      dxy     :     0.009482

 14 C s       :     3.264501  s :     3.264501
      pz      :     0.973075  p :     2.923190
      px      :     1.071662
      py      :     0.878454
      dz2     :     0.003626  d :     0.042498
      dxz     :     0.009042
      dyz     :     0.006198
      dx2y2   :     0.013251
      dxy     :     0.010380

 15 C s       :     3.066668  s :     3.066668
      pz      :     0.982668  p :     2.992314
      px      :     1.074234
      py      :     0.935412
      dz2     :     0.003774  d :     0.042272
      dxz     :     0.008928
      dyz     :     0.006377
      dx2y2   :     0.012466
      dxy     :     0.010728

 16 C s       :     3.304553  s :     3.304553
      pz      :     0.983482  p :     2.948545
      px      :     1.029455
      py      :     0.935609
      dz2     :     0.003942  d :     0.042258
      dxz     :     0.008736
      dyz     :     0.006202
      dx2y2   :     0.012873
      dxy     :     0.010506

 17 C s       :     3.109679  s :     3.109679
      pz      :     0.882169  p :     2.585933
      px      :     0.949974
      py      :     0.753789
      dz2     :     0.007024  d :     0.050028
      dxz     :     0.009416
      dyz     :     0.006527
      dx2y2   :     0.013874
      dxy     :     0.013187

 18 C s       :     3.305688  s :     3.305688
      pz      :     1.077437  p :     3.261429
      px      :     1.166675
      py      :     1.017317
      dz2     :     0.010266  d :     0.037911
      dxz     :     0.003833
      dyz     :     0.007452
      dx2y2   :     0.009954
      dxy     :     0.006406

 19 C s       :     3.212097  s :     3.212097
      pz      :     1.006086  p :     3.004312
      px      :     0.978133
      py      :     1.020093
      dz2     :     0.003802  d :     0.038502
[...]
114:   1504.76   0.001607    8.12  0.000333  (-0.016969  0.005056 -0.004433)
115:   1509.36   0.001540    7.78  0.000318  (-0.010063  0.009018  0.011652)
116:   1514.71   0.000666    3.37  0.000137  (-0.007489  0.008342  0.003409)
117:   1519.68   0.001663    8.40  0.000341  (-0.007620  0.012601 -0.011161)
118:   1599.45   0.001962    9.92  0.000383  (-0.014176 -0.009938 -0.009120)
119:   1609.91   0.005211   26.33  0.001010  ( 0.031409  0.004795  0.000679)
120:   1643.72   0.001527    7.72  0.000290  ( 0.011827 -0.008075 -0.009213)
121:   1652.86   0.000536    2.71  0.000101  ( 0.008150  0.005884 -0.000284)
122:   1661.38   0.001837    9.28  0.000345  ( 0.018150 -0.003898  0.000600)
123:   2938.24   0.008168   41.28  0.000868  ( 0.010243 -0.020540 -0.018459)
124:   2975.13   0.009504   48.03  0.000997  ( 0.006602 -0.004593 -0.030533)
125:   2975.60   0.006301   31.84  0.000661  (-0.009323  0.023066 -0.006472)
126:   2984.11   0.015148   76.55  0.001584  ( 0.029014 -0.025698  0.009052)
127:   2989.25   0.002689   13.59  0.000281  (-0.006512  0.006074 -0.014192)
128:   2992.73   0.004810   24.31  0.000502  ( 0.011680  0.018633 -0.004231)
129:   2996.73   0.009288   46.94  0.000967  ( 0.018936  0.016174  0.018629)
130:   2997.93   0.010833   54.75  0.001128  (-0.001253 -0.000237 -0.033556)
131:   3002.26   0.015030   75.95  0.001562  (-0.034159  0.002394  0.019739)
132:   3002.49   0.004480   22.64  0.000466  ( 0.000051 -0.020354 -0.007165)
133:   3018.38   0.017687   89.38  0.001829  (-0.039528  0.002845 -0.016064)
134:   3020.25   0.005967   30.16  0.000617  ( 0.008170  0.008107  0.022002)
135:   3021.00   0.013715   69.31  0.001417  ( 0.028452  0.014612 -0.019841)
136:   3035.35   0.011858   59.92  0.001219  ( 0.000131 -0.033985 -0.008006)
137:   3042.42   0.003499   17.68  0.000359  (-0.003028 -0.012543  0.013872)
138:   3050.34   0.003538   17.88  0.000362  ( 0.000863  0.010731 -0.015686)
139:   3059.91   0.001884    9.52  0.000192  (-0.003563 -0.013395  0.000098)
140:   3064.50   0.021880  110.57  0.002228  ( 0.039403 -0.005898  0.025311)
141:   3075.94   0.000715    3.61  0.000073  ( 0.003351 -0.005457 -0.005615)
142:   3076.37   0.006931   35.02  0.000703  ( 0.013720 -0.022686 -0.000380)
143:   3079.80   0.006406   32.37  0.000649  ( 0.019078  0.003765 -0.016460)
144:   3082.45   0.000071    0.36  0.000007  ( 0.002561 -0.000603  0.000562)
145:   3089.78   0.007855   39.69  0.000793  ( 0.005615 -0.021587 -0.017198)
146:   3095.16   0.001315    6.65  0.000133  (-0.002853  0.005927  0.009453)
147:   3102.62   0.010807   54.61  0.001087  ( 0.020985 -0.021779 -0.013125)
148:   3108.27   0.001419    7.17  0.000142  ( 0.008360 -0.005833 -0.006209)
149:   3110.10   0.001204    6.08  0.000121  ( 0.000144 -0.007130 -0.008362)
150:   3111.08   0.008412   42.51  0.000844  (-0.028294  0.006467  0.001179)
151:   3131.02   0.007756   39.19  0.000773  ( 0.018976 -0.017172 -0.010865)
152:   3729.07   0.001874    9.47  0.000157  ( 0.002364  0.008295 -0.009079)

* The epsilon (eps) is given for a Dirac delta lineshape.
** The dipole moment derivative (T) already includes vibrational overlap.

The first frequency considered to be a vibration is 6
The total number of vibrations considered is 147


--------------------------
THERMOCHEMISTRY AT 298.15K
--------------------------

Temperature         ...   298.15 K
Pressure            ...     1.00 atm
Total Mass          ...   286.46 AMU
Quasi RRHO          ...     True
Cut-Off Frequency   ...     1.00 cm^-1

Throughout the following assumptions are being made:
  (1) The electronic state is orbitally nondegenerate
  (2) There are no thermally accessible electronically excited states
  (3) Hindered rotations indicated by low frequency modes are not
      treated as such but are treated as vibrations and this may
      cause some error
  (4) All equations used are the standard statistical mechanics
      equations for an ideal gas
  (5) All vibrations are strictly harmonic

freq.      17.08  E(vib)   ...       0.57 
freq.      28.28  E(vib)   ...       0.55 
freq.      33.06  E(vib)   ...       0.55 
freq.      47.41  E(vib)   ...       0.53 
freq.      53.99  E(vib)   ...       0.52 
freq.      70.20  E(vib)   ...       0.50 
freq.      81.23  E(vib)   ...       0.48 
freq.     103.04  E(vib)   ...       0.46 
freq.     106.39  E(vib)   ...       0.45 
freq.     119.35  E(vib)   ...       0.44 
freq.     154.57  E(vib)   ...       0.40 
freq.     167.94  E(vib)   ...       0.38 
freq.     172.75  E(vib)   ...       0.38 
freq.     180.01  E(vib)   ...       0.37 
freq.     192.99  E(vib)   ...       0.36 
freq.     214.15  E(vib)   ...       0.34 
freq.     225.58  E(vib)   ...       0.33 
freq.     242.41  E(vib)   ...       0.31 
freq.     258.80  E(vib)   ...       0.30 
freq.     271.35  E(vib)   ...       0.29 
freq.     274.96  E(vib)   ...       0.28 
freq.     308.99  E(vib)   ...       0.26 
freq.     311.87  E(vib)   ...       0.25 
freq.     320.06  E(vib)   ...       0.25 
freq.     336.26  E(vib)   ...       0.24 
freq.     346.88  E(vib)   ...       0.23 
freq.     352.24  E(vib)   ...       0.23 
freq.     368.65  E(vib)   ...       0.21 
freq.     389.09  E(vib)   ...       0.20 
freq.     412.29  E(vib)   ...       0.19 
freq.     424.19  E(vib)   ...       0.18 
freq.     437.13  E(vib)   ...       0.17 
freq.     476.75  E(vib)   ...       0.15 
freq.     484.21  E(vib)   ...       0.15 
freq.     496.16  E(vib)   ...       0.14 
freq.     520.63  E(vib)   ...       0.13 
freq.     527.62  E(vib)   ...       0.13 
freq.     535.96  E(vib)   ...       0.12 
freq.     581.01  E(vib)   ...       0.11 
freq.     605.56  E(vib)   ...       0.10 
freq.     616.69  E(vib)   ...       0.09 
freq.     645.91  E(vib)   ...       0.09 
freq.     740.62  E(vib)   ...       0.06 
freq.     796.55  E(vib)   ...       0.05 
freq.     802.43  E(vib)   ...       0.05 
freq.     837.53  E(vib)   ...       0.04 
freq.     851.35  E(vib)   ...       0.04 
freq.     856.04  E(vib)   ...       0.04 
freq.     871.46  E(vib)   ...       0.04 
freq.     890.40  E(vib)   ...       0.04 
freq.     895.21  E(vib)   ...       0.03 
freq.     899.95  E(vib)   ...       0.03 
freq.     912.29  E(vib)   ...       0.03 
freq.     937.17  E(vib)   ...       0.03 
freq.     947.83  E(vib)   ...       0.03 
freq.     951.93  E(vib)   ...       0.03 
freq.     968.89  E(vib)   ...       0.03 
freq.     980.06  E(vib)   ...       0.02 
freq.     985.62  E(vib)   ...       0.02 
freq.     990.72  E(vib)   ...       0.02 
freq.    1008.16  E(vib)   ...       0.02 
freq.    1022.81  E(vib)   ...       0.02 
freq.    1025.19  E(vib)   ...       0.02 
freq.    1037.66  E(vib)   ...       0.02 
freq.    1048.83  E(vib)   ...       0.02 
freq.    1049.29  E(vib)   ...       0.02 
freq.    1053.16  E(vib)   ...       0.02 
freq.    1064.64  E(vib)   ...       0.02 
freq.    1081.97  E(vib)   ...       0.02 
freq.    1098.60  E(vib)   ...       0.02 
freq.    1144.80  E(vib)   ...       0.01 
freq.    1156.51  E(vib)   ...       0.01 
freq.    1187.73  E(vib)   ...       0.01 
freq.    1191.51  E(vib)   ...       0.01 
freq.    1201.02  E(vib)   ...       0.01 
freq.    1202.19  E(vib)   ...       0.01 
freq.    1226.41  E(vib)   ...       0.01 
freq.    1230.49  E(vib)   ...       0.01 
freq.    1234.94  E(vib)   ...       0.01 
freq.    1264.62  E(vib)   ...       0.01 
freq.    1282.36  E(vib)   ...       0.01 
freq.    1300.68  E(vib)   ...       0.01 
freq.    1309.09  E(vib)   ...       0.01 
freq.    1332.71  E(vib)   ...       0.01 
freq.    1338.46  E(vib)   ...       0.01 
freq.    1340.69  E(vib)   ...       0.01 
freq.    1348.77  E(vib)   ...       0.01 
freq.    1366.39  E(vib)   ...       0.01 
freq.    1376.13  E(vib)   ...       0.01 
freq.    1383.79  E(vib)   ...       0.00 
freq.    1386.60  E(vib)   ...       0.00 
freq.    1394.87  E(vib)   ...       0.00 
freq.    1397.05  E(vib)   ...       0.00 
freq.    1409.76  E(vib)   ...       0.00 
freq.    1410.44  E(vib)   ...       0.00 
freq.    1418.96  E(vib)   ...       0.00 
freq.    1419.89  E(vib)   ...       0.00 
freq.    1427.60  E(vib)   ...       0.00 
freq.    1475.90  E(vib)   ...       0.00 
freq.    1485.66  E(vib)   ...       0.00 
freq.    1490.16  E(vib)   ...       0.00 
freq.    1491.99  E(vib)   ...       0.00 
freq.    1492.48  E(vib)   ...       0.00 
freq.    1494.03  E(vib)   ...       0.00 
freq.    1496.74  E(vib)   ...       0.00 
freq.    1499.00  E(vib)   ...       0.00 
freq.    1499.50  E(vib)   ...       0.00 
freq.    1501.59  E(vib)   ...       0.00 
freq.    1504.76  E(vib)   ...       0.00 
freq.    1509.36  E(vib)   ...       0.00 
freq.    1514.71  E(vib)   ...       0.00 
freq.    1519.68  E(vib)   ...       0.00 
freq.    1599.45  E(vib)   ...       0.00 
freq.    1609.91  E(vib)   ...       0.00 
freq.    1643.72  E(vib)   ...       0.00 
freq.    1652.86  E(vib)   ...       0.00 
freq.    1661.38  E(vib)   ...       0.00 
freq.    2938.24  E(vib)   ...       0.00 
freq.    2975.13  E(vib)   ...       0.00 
freq.    2975.60  E(vib)   ...       0.00 
freq.    2984.11  E(vib)   ...       0.00 
freq.    2989.25  E(vib)   ...       0.00 
freq.    2992.73  E(vib)   ...       0.00 
freq.    2996.73  E(vib)   ...       0.00 
freq.    2997.93  E(vib)   ...       0.00 
freq.    3002.26  E(vib)   ...       0.00 
freq.    3002.49  E(vib)   ...       0.00 
freq.    3018.38  E(vib)   ...       0.00 
freq.    3020.25  E(vib)   ...       0.00 
freq.    3021.00  E(vib)   ...       0.00 
freq.    3035.35  E(vib)   ...       0.00 
freq.    3042.42  E(vib)   ...       0.00 
freq.    3050.34  E(vib)   ...       0.00 
freq.    3059.91  E(vib)   ...       0.00 
freq.    3064.50  E(vib)   ...       0.00 
freq.    3075.94  E(vib)   ...       0.00 
freq.    3076.37  E(vib)   ...       0.00 
freq.    3079.80  E(vib)   ...       0.00 
freq.    3082.45  E(vib)   ...       0.00 
freq.    3089.78  E(vib)   ...       0.00 
freq.    3095.16  E(vib)   ...       0.00 
freq.    3102.62  E(vib)   ...       0.00 
freq.    3108.27  E(vib)   ...       0.00 
freq.    3110.10  E(vib)   ...       0.00 
freq.    3111.08  E(vib)   ...       0.00 
freq.    3131.02  E(vib)   ...       0.00 
freq.    3729.07  E(vib)   ...       0.00 

------------
INNER ENERGY
------------

The inner energy is: U= E(el) + E(ZPE) + E(vib) + E(rot) + E(trans)
    E(el)   - is the total energy from the electronic structure calculation
              = E(kin-el) + E(nuc-el) + E(el-el) + E(nuc-nuc)
    E(ZPE)  - the the zero temperature vibrational energy from the frequency calculation
    E(vib)  - the the finite temperature correction to E(ZPE) due to population
              of excited vibrational states
    E(rot)  - is the rotational thermal energy
    E(trans)- is the translational thermal energy

Summary of contributions to the inner energy U:
Electronic energy                ...   -854.95840723 Eh
Zero point energy                ...      0.44858401 Eh     281.49 kcal/mol
Thermal vibrational correction   ...      0.02149513 Eh      13.49 kcal/mol
Thermal rotational correction    ...      0.00141627 Eh       0.89 kcal/mol
Thermal translational correction ...      0.00141627 Eh       0.89 kcal/mol
-----------------------------------------------------------------------
Total thermal energy                   -854.48549554 Eh


Summary of corrections to the electronic energy:
(perhaps to be used in another calculation)
Total thermal correction                  0.02432767 Eh      15.27 kcal/mol
Non-thermal (ZPE) correction              0.44858401 Eh     281.49 kcal/mol
-----------------------------------------------------------------------
Total correction                          0.47291169 Eh     296.76 kcal/mol


--------
ENTHALPY
--------

The enthalpy is H = U + kB*T
                kB is Boltzmann's constant
Total thermal energy              ...   -854.48549554 Eh 
Thermal Enthalpy correction       ...      0.00094421 Eh       0.59 kcal/mol
-----------------------------------------------------------------------
Total Enthalpy                    ...   -854.48455133 Eh


Note: Only C1 symmetry has been detected, increase convergence thresholds 
      if your molecule has a higher symmetry. Symmetry factor of 1.0 is   
      used for the rotational entropy correction. 
 

Note: Rotational entropy computed according to Herzberg 
Infrared and Raman Spectra, Chapter V,1, Van Nostrand Reinhold, 1945 
Point Group:  C1, Symmetry Number:   1  
Rotational constants in cm-1:     0.026717     0.002596     0.002501 

Vibrational entropy computed according to the QRRHO of S. Grimme
Chem.Eur.J. 2012 18 9955 using a reference frequency of 100.0 cm-1


-------
ENTROPY
-------

The entropy contributions are T*S = T*(S(el)+S(vib)+S(rot)+S(trans))
     S(el)   - electronic entropy
     S(vib)  - vibrational entropy
     S(rot)  - rotational entropy
     S(trans)- translational entropy
The entropies will be listed as multiplied by the temperature to get
units of energy

Electronic entropy                ...      0.00000000 Eh      0.00 kcal/mol
Vibrational entropy               ...      0.03833707 Eh     24.06 kcal/mol
Rotational entropy                ...      0.01685999 Eh     10.58 kcal/mol
Translational entropy             ...      0.02036176 Eh     12.78 kcal/mol
-----------------------------------------------------------------------
Final entropy term                ...      0.07555882 Eh     47.41 kcal/mol

In case the symmetry of your molecule has not been determined correctly
or in case you have a reason to use a different symmetry number we print 
out the resulting rotational entropy values for sn=1,12:

 non-linear molecules -----------------------------------
|  sn= 1 | S(rot)=       0.01685999 Eh     10.58 kcal/mol|
|  sn= 2 | S(rot)=       0.01620554 Eh     10.17 kcal/mol|
|  sn= 3 | S(rot)=       0.01582270 Eh      9.93 kcal/mol|
|  sn= 4 | S(rot)=       0.01555108 Eh      9.76 kcal/mol|
|  sn= 5 | S(rot)=       0.01534039 Eh      9.63 kcal/mol|
|  sn= 6 | S(rot)=       0.01516825 Eh      9.52 kcal/mol|
|  sn= 7 | S(rot)=       0.01502270 Eh      9.43 kcal/mol|
|  sn= 8 | S(rot)=       0.01489662 Eh      9.35 kcal/mol|
|  sn= 9 | S(rot)=       0.01478541 Eh      9.28 kcal/mol|
|  sn=10 | S(rot)=       0.01468594 Eh      9.22 kcal/mol|
|  sn=11 | S(rot)=       0.01459595 Eh      9.16 kcal/mol|
|  sn=12 | S(rot)=       0.01451379 Eh      9.11 kcal/mol|
 linear molecules ---------------------------------------
|  Dinfh | S(rot)=       0.01098232 Eh      6.89 kcal/mol|
|  Cinfv | S(rot)=       0.01163678 Eh      7.30 kcal/mol|
 --------------------------------------------------------


-------------------
GIBBS FREE ENERGY
-------------------

The Gibbs free energy is G = H - T*S

Total enthalpy                    ...   -854.48455133 Eh 
Total entropy correction          ...     -0.07555882 Eh    -47.41 kcal/mol
-----------------------------------------------------------------------
Final Gibbs free energy         ...   -854.56011015 Eh

For completeness - the Gibbs free energy minus the electronic energy
G-E(el)                           ...      0.39829707 Eh    249.93 kcal/mol


Maximum memory used throughout the entire PROP-calculation: 135.2 MB

--------------------------------
SUGGESTED CITATIONS FOR THIS RUN
--------------------------------

Below you find a list of papers that are relevant to this ORCA run
We neither can nor want to force you to cite these papers, but we appreciate if you do
You receive ORCA, which is the product of decades of hard work by many enthusiastic individuals, for free
The only thing we kindly ask in return is that you cite our papers,
We deeply appreciate it, if you show your appreciation for ORCA by not just citing the generic ORCA reference.

Please note that relegating all ORCA citations to the supporting information does *not* help us.
SI sections are not indexed - citations you put there will not count into any citation statistics
But we need these citations in order to attract the funding resources that allow us to do what we are doing

Therefore, if you are a happy ORCA user, please consider citing a few of the papers listed below in the main body of your paper

In addition to the list printed below, the program has created the file m1_00_Vitamin_A-GFN2_004-B97-3C-TZ.bibtex that contains the list in bibtex format
You can import this file easily into all common literature databanks and citation aid programs


List of essential papers. We consider these as the minimum necessary citations

  1. Neese,F.
     Software update: the ORCA program system, version 5.0
     WIRES Comput. Molec. Sci., 2022 12(1)e1606
     doi.org/10.1002/wcms.1606

List of papers to cite with high priority. The work reported in these papers was absolutely
necessary for this run to complete.
Our perspective: the developers of density functionals and basis sets usually get cited in chemistry papers
Good! But without the algorithms to do something with them, the functionals or basis sets would not do anything.
Hence, in our opinion, the algorithm design and method developments papers are equally worthy of getting cited

  1. Neese,F.
     An improvement of the resolution of the identity approximation for the formation of the Coulomb matrix
     J. Comp. Chem., 2003 24(14)1740-1747
     doi.org/10.1002/jcc.10318
  2. Bykov,D.; Petrenko,T.; Izsak,R.; Kossmann,S.; Becker,U.; Valeev,E.; Neese,F.
     Efficient implementation of the analytic second derivatives of Hartree-Fock and hybrid DFT energies: a detailed analysis of different approximations
     Molec. Phys., 2015 113 1961-1977
     doi.org/10.1080/00268976.2015.1025114
  3. Neese,F.
     The SHARK Integral Generation and Digestion System
     J. Comp. Chem., 2022  1-16
     doi.org/10.1002/jcc.26942
  4. Grimme,S.; Antony,J.; Ehrlich,S.; Krieg,H.
     A consistent and accurate ab initio parametrization of density functional dispersion correction (DFT-D) for the 94 elements H-Pu
     J. Chem. Phys., 2010 132 154104
     doi.org/10.1063/1.3382344
  5. Grimme,S.; Ehrlich,S.; Goerigk,L.
     Effect of the damping function in dispersion corrected density functional theory
     J. Comput. Chem., 2011 32(7)1456-1465
     doi.org/10.1002/jcc.21759

List of suggested additional citations. These are papers that are important in the 'surrounding' of 
of this run, or papers that preceded the highly important papers. If you like your results we are grateful for a citation.

  1. Neese,F.
     The ORCA program system
     WIRES Comput. Molec. Sci., 2012 2(1)73-78
     doi.org/10.1002/wcms.81
  2. Neese,F.
     Software update: the ORCA program system, version 4.0
     WIRES Comput. Molec. Sci., 2018 8(1)1-6
     doi.org/10.1002/wcms.1327
  3. Neese,F.; Wennmohs,F.; Becker,U.; Riplinger,C.
     The ORCA quantum chemistry program package
     J. Chem. Phys., 2020 152 Art. No. L224108
     doi.org/10.1063/5.0004608

List of optional additional citations

  1. Neese,F.
     Approximate second-order SCF convergence for spin unrestricted wavefunctions
     Chem. Phys. Lett., 2000 325(1-3)93-98
     doi.org/10.1016/s0009-2614(00)00662-x

Timings for individual modules:

Sum of individual times          ...      597.027 sec (=   9.950 min)
Startup calculation              ...       66.219 sec (=   1.104 min)  11.1 %
SCF iterations                   ...      129.173 sec (=   2.153 min)  21.6 %
Property integrals               ...      118.259 sec (=   1.971 min)  19.8 %
SCF Response                     ...      148.662 sec (=   2.478 min)  24.9 %
Property calculations            ...       53.109 sec (=   0.885 min)   8.9 %
SCF Gradient evaluation          ...       81.377 sec (=   1.356 min)  13.6 %
Geometry relaxation              ...        0.228 sec (=   0.004 min)   0.0 %
                             ****ORCA TERMINATED NORMALLY****
TOTAL RUN TIME: 0 days 0 hours 10 minutes 0 seconds 550 msec
