
                                 *****************
                                 * O   R   C   A *
                                 *****************

                                            #,                                       
                                            ###                                      
                                            ####                                     
                                            #####                                    
                                            ######                                   
                                           ########,                                 
                                     ,,################,,,,,                         
                               ,,#################################,,                 
                          ,,##########################################,,             
                       ,#########################################, ''#####,          
                    ,#############################################,,   '####,        
                  ,##################################################,,,,####,       
                ,###########''''           ''''###############################       
              ,#####''   ,,,,##########,,,,          '''####'''          '####       
            ,##' ,,,,###########################,,,                        '##       
           ' ,,###''''                  '''############,,,                           
         ,,##''                                '''############,,,,        ,,,,,,###''
      ,#''                                            '''#######################'''  
     '                                                          ''''####''''         
             ,#######,   #######,   ,#######,      ##                                
            ,#'     '#,  ##    ##  ,#'     '#,    #''#        ,####,   ,####,        
            ##       ##  ##   ,#'  ##            #'  '#       #'       #'  '#        
            ##       ##  #######   ##           ,######,      #####,   #    #        
            '#,     ,#'  ##    ##  '#,     ,#' ,#      #,     #,   #   #,  ,#        
             '#######'   ##     ##  '#######'  #'      '#     '####' # '####'        



                #########################################################
                #                        -***-                          #
                #          Department of theory and spectroscopy        #
                #                                                       #
                #                      Frank Neese                      #
                #                                                       #
                #     Directorship, Architecture, Infrastructure        #
                #                    SHARK, DRIVERS                     #
                #        Core code/Algorithms in most modules           #
                #                                                       #
                #        Max Planck Institute fuer Kohlenforschung      #
                #                Kaiser Wilhelm Platz 1                 #
                #                 D-45470 Muelheim/Ruhr                 #
                #                      Germany                          #
                #                                                       #
                #                  All rights reserved                  #
                #                        -***-                          #
                #########################################################


                         Program Version 6.0.1  -  RELEASE   -


 With contributions from (in alphabetic order):
[Max-Planck-Institut fuer Kohlenforschung]                               
  Daniel Aravena         : Magnetic Suceptibility                        
  Michael Atanasov       : Ab Initio Ligand Field Theory (pilot matlab implementation)
  Alexander A. Auer      : GIAO ZORA, VPT2 properties, NMR spectrum      
  Ute Becker             : All parallelization in ORCA, NUMFREQ, NUMCALC 
  Giovanni Bistoni       : ED, misc. LED, open-shell LED, HFLD           
  Martin Brehm           : Molecular dynamics                            
  Dmytro Bykov           : pre 5.0 version of the SCF Hessian            
  Marcos Casanova-Páez   : Triplet and SCS-CIS(D). UHF-(DLPNO)-IP/EA/STEOM-CCSD. UHF-CVS-IP/STEOM-CCSD   
  Vijay G. Chilkuri      : MRCI spin determinant printing, contributions to CSF-ICE 
  Pauline Colinet        : FMM embedding                                 
  Dipayan Datta          : RHF DLPNO-CCSD density                        
  Achintya Kumar Dutta   : EOM-CC, STEOM-CC                              
  Nicolas Foglia         : Exact transition moments, OPA infrastructure, MCD improvements    
  Dmitry Ganyushin       : Spin-Orbit,Spin-Spin,Magnetic field MRCI      
  Miquel Garcia-Rates    : C-PCM and meta-GGA Hessian, CCSD/C-PCM, Gaussian charge scheme 
  Tiago L. C. Gouveia    : GS-ROHF, GS-ROCIS                             
  Yang Guo               : DLPNO-NEVPT2, F12-NEVPT2, CIM, IAO-localization        
  Andreas Hansen         : Spin unrestricted coupled pair/coupled cluster methods 
  Ingolf Harden          : AUTO-CI MPn and infrastructure                
  Benjamin Helmich-Paris : MC-RPA, TRAH-(SCF,CASSCF), AVAS, COSX integrals, SCF dyn. polar. 
  Lee Huntington         : MR-EOM, pCC                                   
  Robert Izsak           : Overlap fitted RIJCOSX, COSX-SCS-MP3, EOM     
  Riya Kayal             : Wick's Theorem for AUTO-CI, AUTO-CI UHF-CCSDT 
  Emily Kempfer          : AUTO-CI, RHF CISDT and CCSDT                  
  Christian Kollmar      : KDIIS, OOCD, Brueckner-CCSD(T), CCSD density, CASPT2, CASPT2-K, improved NEVPT2 
  Axel Koslowski         : Symmetry handling                             
  Simone Kossmann        : meta-GGA functionals, TD-DFT gradient, OOMP2, (MP2 Hessian; deprecated post 5.0) 
  Lucas Lang             : DCDCAS                                        
  Marvin Lechner         : AUTO-CI (C++ implementation), FIC-MRCC        
  Spencer Leger          : CASSCF response                               
  Dagmar Lenk            : GEPOL surface, SMD, ORCA-2-JSON               
  Dimitrios Liakos       : Extrapolation schemes; Compound Job, initial MDCI parallelization 
  Dimitrios Manganas     : Further ROCIS development; embedding schemes. LFT, Crystal Embedding 
  Dimitrios Pantazis     : SARC Basis sets                               
  Anastasios Papadopoulos: AUTO-CI, single reference methods and gradients 
  Taras Petrenko         : pre 6.0 DFT Hessian and TD-DFT gradient, (ASA, deprecated), ECA, 1-Electron XAS/XES, NRVS 
  Peter Pinski           : DLPNO-MP2, DLPNO-MP2 Gradient                 
  Christoph Reimann      : Effective Core Potentials                     
  Marius Retegan         : Local ZFS, SOC                                
  Christoph Riplinger    : Optimizer, TS searches, QM/MM, DLPNO-CCSD(T), (RO)-DLPNO pert. Triples 
  Michael Roemelt        : Original ROCIS implementation                 
  Masaaki Saitow         : Open-shell DLPNO-CCSD energy and density      
  Barbara Sandhoefer     : DKH picture change effects                    
  Kantharuban Sivalingam : CASSCF convergence/infrastructure, NEVPT2 and variants, FIC-MRCI 
  Bernardo de Souza      : ESD, SOC TD-DFT                               
  Georgi L. Stoychev     : AutoAux, RI-MP2 NMR, DLPNO-MP2 response, X2C  
  Van Anh Tran           : RI-MP2 g-tensors                              
  Willem Van den Heuvel  : Paramagnetic NMR                              
  Zikuan Wang            : NOTCH, Electric field optimization            
  Frank Wennmohs         : Technical directorship and infrastructure     
  Hang Xu                : AUTO-CI-Response properties                   
                                                                         
[FACCTs GmbH]                                                            
  Markus Bursch, Miquel Garcia-Rates, Christoph Riplinger, Bernardo de Souza, Georgi L. Stoychev 
                                                                 
  APM, Basis sets (HGBS, AHGBS, def-TZVP (Ac-Lr), def2-XVPD (La-Lu)), CI-OPT, improved COSX, DLPNO-Multilevel,           
  DOCKER, DRACO, updates on ESD, GOAT, IRC, LR-CPCM, MBIS, meta-GGA TD-DFT gradient, ML-optimized integration grids, 
  MM, NACMEs, nearIR, NEB, NEB-TS, NL-DFT gradient (VV10), 2- and 3-layer-ONIOM, interface openCOSMO-RS, QMMM,   
  Crystal-QMMM, SF, symmetry and pop. for TD-DFT, r2SCAN hybrids, SOLVATOR                                   
                                                                         
[Other institutions]                                                     
  V. Asgeirsson          : NEB                                           
  Christoph Bannwarth    : sTDA-DFT, sTD-DFT, PBEh-3c, B97-3c, D3        
  Sebastian Ehlert       : rSCAN, r2SCAN, r2SCAN-3c, D4, dhf basis sets  
  Marvin Friede          : D4 for Fr, Ra, Ac-Lr                          
  Lars Goerigk           : TD-DFT with DH, B97 family of functionals     
  Stefan Grimme          : VdW corrections, initial TS optimization, DFT functionals, gCP, sTDA/sTD-DF 
  Waldemar Hujo          : DFT-NL                                        
  H. Jonsson             : NEB                                           
  Holger Kruse           : gCP                                           
  Marcel Mueller         : wB97X-3c, vDZP basis set                      
  Hagen Neugebauer       : wr2SCAN                                       
  Tobias Risthaus        : range-separated hybrid DFT                    
  Lukas Wittmann         : regularized MP2, r2SCAN double-hybrids, wr2SCAN        
                                                                         
We gratefully acknowledge several colleagues who have allowed us to      
interface, adapt or use parts of their codes:                            
  Ed Valeev, F. Pavosevic, A. Kumar             : LibInt (2-el integral package), F12 methods 
  Garnet Chan, S. Sharma, J. Yang, R. Olivares  : DMRG                   
  Ulf Ekstrom                                   : XCFun DFT Library      
  Mihaly Kallay                                 : mrcc  (arbitrary order and MRCC methods)
  Frank Weinhold                                : gennbo (NPA and NBO analysis)           
  Simon Mueller                                 : openCOSMO-RS                            
  Christopher J. Cramer and Donald G. Truhlar   : smd solvation model                     
  S Lehtola, MJT Oliveira, MAL Marques          : LibXC Library                           
  Liviu Ungur et al                             : ANISO software                          


 Your calculation uses the libint2 library for the computation of 2-el integrals
 For citations please refer to: http://libint.valeyev.net

 Your ORCA version has been built with support for libXC version: 6.2.2
 For citations please refer to: https://libxc.gitlab.io

 This ORCA versions uses:
   CBLAS   interface :  Fast vector & matrix operations
   LAPACKE interface :  Fast linear algebra routines
   SCALAPACK package :  Parallel linear algebra routines
   Shared memory     :  Shared parallel matrices
   BLAS/LAPACK       :  OpenBLAS 0.3.27  USE64BITINT DYNAMIC_ARCH NO_AFFINITY Zen SINGLE_THREADED
        Core in use  :  Zen
   Copyright (c) 2011-2014, The OpenBLAS Project


NOTE: MaxCore=6000 MB was set to SCF,MP2,MDCI,CIPSI,MRCI and CIS
      => If you want to overwrite this, your respective input block should be placed after the MaxCore statement
Your calculation utilizes the atom-pairwise dispersion correction
with the Becke-Johnson damping scheme (D3BJ)


Your calculation employs the composite approach B97-3c by Grimme and coworkers.
For the correct reference, please check the publication list of the Grimme group:
http://www.thch.uni-bonn.de/tc/index.php?section=publikationen&subsection=grimme#2017
   

XCFun DFT library Copyright 2009-2010 Ulf Ekstrom and contributors.
See http://admol.org/xcfun for more information.
This is free software; see the source code for copying conditions.
There is ABSOLUTELY NO WARRANTY; not even for MERCHANTABILITY or FITNESS FOR A PARTICULAR PURPOSE.
For details see the documentation.
Scientific users of this library should cite U. Ekstrom, L. Visscher, R. Bast, A. J. Thorvaldsen and K. Ruud;
J.Chem.Theor.Comp. 2010, DOI: 10.1021/ct100117s
XCFun Version 0.99 

================================================================================

----- Orbital basis set information -----
Your calculation utilizes the basis: def2-mTZVP
----- AuxJ basis set information -----
Your calculation utilizes the basis: def2-mTZVP/J
================================================================================
                                        WARNINGS
                       Please study these warnings very carefully!
================================================================================


WARNING: Geometry Optimization
  ===> : Switching off AutoStart
         For restart on a previous wavefunction, please use MOREAD

================================================================================
                                       INPUT FILE
================================================================================
NAME = m1_00_Vitamin_A-GFN2_006-B97-3C-TZ.inp
|  1> %pal nprocs 16 end
|  2> %MaxCore 6000
|  3> # put your comments here
|  4> ! B97-3C  OPT  FREQ DEFGRID3 NOTRAH
|  5> %scf MaxIter 800 end
|  6> %output
|  7> Print [P_Hirshfeld] 1
|  8> end
|  9> %geom
| 10> MaxIter 3000
| 11>  TolE 1e-6 #TolE 5e-6 Energy change (a.u.)
| 12>  TolRMSG 3e-5 #TolRMSG 1e-4 RMS gradient (a.u.)
| 13>  TolMaxG 1e-4 #TolMaxG 3e-3 Max. element of gradient (a.u.)
| 14>  TolRMSD 2e-3 #TolRMSD 2e-3 RMS displacement (a.u.)
| 15>  TolMaxD 4e-3 #TolMaxD 4e-3 Max. displacement (a.u.)
| 16> end
| 17> * xyz 0 1
| 18>  O 8.25873482933219 0.54749347226025 1.44640225398739
| 19>  C -4.26005805794252 1.40032430601809 -2.18327404703056
| 20>  C -5.49609927086343 1.32254301498037 -1.27738122206782
| 21>  C -5.93822629762642 2.69839902279388 -0.80548525064380
| 22>  C -3.20146401354898 2.31208500040493 -1.57248111686697
| 23>  C -4.83076296221044 3.31374606913414 0.03819400264847
| 24>  C -3.47314375563649 3.19189763229257 -0.60010297654291
| 25>  C -4.65512434750801 1.92949212505964 -3.56966408634564
| 26>  C -3.69492488838345 -0.01879139867815 -2.33361211430328
| 27>  C -1.87383200327326 2.17121507482745 -2.16657285056971
| 28>  C -2.46476763122263 4.15416710562550 -0.04107767555868
| 29>  C -0.73650298356354 2.01457617373908 -1.47123489844475
| 30>  C 0.58533809204797 1.85460687410382 -2.02741298160137
| 31>  C 0.72894050240014 1.92337400428375 -3.51877504942962
| 32>  C 1.62488668450976 1.65129807783724 -1.17932567639888
| 33>  C 3.00041160409645 1.46328298376122 -1.50651033144659
| 34>  C 3.94896766924907 1.26709017475485 -0.56719494849165
| 35>  C 5.35867764411016 1.06851976158583 -0.80737639648354
| 36>  C 5.84509209803141 1.07655370865311 -2.22823859685802
| 37>  C 6.18411557545826 0.88448654202229 0.23482682025115
| 38>  C 7.66760907838004 0.67220743858386 0.17386918198710
| 39>  H -5.25549355783523 0.71427107584290 -0.40211401480136
| 40>  H -6.30682742700074 0.82634601727519 -1.81546348455467
| 41>  H -6.85561216211212 2.61919800194055 -0.21803783046403
| 42>  H -6.14859543908499 3.33886670641754 -1.66304586096921
| 43>  H -4.79364160311786 2.81067513919103 1.01156046142204
| 44>  H -5.05028299099283 4.36662669321642 0.23347130685314
| 45>  H -4.98860020333863 2.96243203140129 -3.51175573475429
| 46>  H -3.81401434321896 1.88580589191152 -4.25675838835877
| 47>  H -5.46022305675507 1.32640152581931 -3.98510908781455
| 48>  H -4.47207338730014 -0.69260061908896 -2.68975338664125
| 49>  H -2.86937674581482 -0.04489013331351 -3.03986469123373
| 50>  H -3.33210743205979 -0.38568745511802 -1.37567383792955
| 51>  H -1.84785160009093 2.14230993315953 -3.24718073803557
| 52>  H -2.91186831453934 5.14332198535810 0.05661464811382
| 53>  H -1.58412126922119 4.22919860426487 -0.67202838482903
| 54>  H -2.15032299154519 3.83935587415802 0.95455096423233
| 55>  H -0.79366661054798 1.97675569846898 -0.39123976483374
| 56>  H 1.76569280572184 1.85848508357462 -3.83037764604614
| 57>  H 0.18083211761917 1.10466492555449 -3.98522157622048
| 58>  H 0.31781921834583 2.86100977576479 -3.89137333541260
| 59>  H 1.40100125558301 1.62257837832330 -0.11883178396155
| 60>  H 3.28203795589800 1.47852725039263 -2.54822060667733
| 61>  H 3.64650807979459 1.25192865030147 0.47299747339617
| 62>  H 5.35033599650319 0.28925284062772 -2.79514794757716
| 63>  H 6.91673182279862 0.91558838756223 -2.28125565493058
| 64>  H 5.61267179194109 2.03097742046643 -2.69907883253567
| 65>  H 5.77312397925384 0.87372809655746 1.23638300052627
| 66>  H 8.14731387460814 1.49480658208859 -0.38385255027973
| 67>  H 7.90371494847259 -0.26489939291229 -0.34254145587198
| 68>  H 8.01980872220031 1.31742386675104 1.97422770039834
| 69> *
| 70> 
| 71> 
| 72> 
| 73> 
| 74>                          ****END OF INPUT****
================================================================================

                       *****************************
                       * Geometry Optimization Run *
                       *****************************

Geometry optimization settings:
Update method            Update   .... BFGS
Choice of coordinates    CoordSys .... (2022) Redundant Internals
Initial Hessian          InHess   .... Almloef's Model
Max. no of cycles        MaxIter  .... 3000

Convergence Tolerances:
Energy Change            TolE     ....  1.0000e-06 Eh
Max. Gradient            TolMAXG  ....  1.0000e-04 Eh/bohr
RMS Gradient             TolRMSG  ....  3.0000e-05 Eh/bohr
Max. Displacement        TolMAXD  ....  4.0000e-03 bohr
RMS Displacement         TolRMSD  ....  2.0000e-03 bohr
Strict Convergence                .... False

------------------------------------------------------------------------------
                        ORCA OPTIMIZATION COORDINATE SETUP
------------------------------------------------------------------------------

The optimization will be done in redundant internal coordinates (2022)
Making redundant internal coordinates   ...  (2022 redundants) done
Evaluating the initial hessian          ...  (Almloef) done
Evaluating the coordinates              ...  done
Calculating the B-matrix                .... done
Calculating the G-matrix                .... done
Diagonalizing the G-matrix              .... done
Small eigenvalue found = 9.024e-04
Small eigenvalue found = 3.396e-03
Small eigenvalue found = 5.546e-03
Small eigenvalue found = 7.173e-03
Small eigenvalue found = 1.198e-02
Small eigenvalue found = 1.830e-02
Small eigenvalue found = 2.032e-02
Small eigenvalue found = 2.753e-02
The first mode is                       ....   94
The number of degrees of freedom        ....  147

    -----------------------------------------------------------------
                    Redundant Internal Coordinates


    -----------------------------------------------------------------
         Definition                    Initial Value    Approx d2E/dq
    -----------------------------------------------------------------
      1. B(C   2,C   1)                  1.5344         0.367538   
      2. B(C   3,C   2)                  1.5202         0.387206   
      3. B(C   4,C   1)                  1.5248         0.380788   
      4. B(C   5,C   3)                  1.5221         0.384513   
      5. B(C   6,C   5)                  1.5051         0.409322   
      6. B(C   6,C   4)                  1.3392         0.753045   
      7. B(C   7,C   1)                  1.5356         0.365922   
      8. B(C   8,C   1)                  1.5349         0.366933   
      9. B(C   9,C   4)                  1.4613         0.480823   
     10. B(C  10,C   6)                  1.5018         0.414407   
     11. B(C  11,C   9)                  1.3422         0.744685   
     12. B(C  12,C  11)                  1.4430         0.514297   
     13. B(C  13,C  12)                  1.4998         0.417350   
     14. B(C  14,C  12)                  1.3569         0.705515   
     15. B(C  15,C  14)                  1.4263         0.546698   
     16. B(C  16,C  15)                  1.3493         0.725605   
     17. B(C  17,C  16)                  1.4437         0.512852   
     18. B(C  18,C  17)                  1.5018         0.414296   
     19. B(C  19,C  17)                  1.3422         0.744832   
     20. B(C  20,C  19)                  1.4998         0.417340   
     21. B(C  20,O   0)                  1.4087         0.522522   
     22. B(H  21,C   2)                  1.0927         0.356555   
     23. B(H  22,C   2)                  1.0923         0.357127   
     24. B(H  23,C   3)                  1.0922         0.357163   
     25. B(H  24,C   3)                  1.0908         0.359031   
     26. B(H  25,C   5)                  1.0963         0.351846   
     27. B(H  26,C   5)                  1.0931         0.356015   
     28. B(H  27,C   7)                  1.0870         0.364118   
     29. B(H  28,C   7)                  1.0870         0.364150   
     30. B(H  29,C   7)                  1.0883         0.362295   
     31. B(H  30,C   8)                  1.0885         0.362100   
     32. B(H  31,C   8)                  1.0867         0.364439   
     33. B(H  32,C   8)                  1.0881         0.362663   
     34. B(H  33,C   9)                  1.0813         0.371786   
     35. B(H  34,C  10)                  1.0899         0.360239   
     36. B(H  35,C  10)                  1.0859         0.365511   
     37. B(H  36,C  10)                  1.0905         0.359398   
     38. B(H  37,C  11)                  1.0822         0.370611   
     39. B(H  38,C  13)                  1.0845         0.367436   
     40. B(H  39,C  13)                  1.0901         0.359991   
     41. B(H  40,C  13)                  1.0895         0.360762   
     42. B(H  41,C  14)                  1.0842         0.367788   
     43. B(H  42,C  15)                  1.0792         0.374653   
     44. B(H  43,C  16)                  1.0834         0.368965   
     45. B(H  44,C  18)                  1.0890         0.361370   
     46. B(H  45,C  18)                  1.0850         0.366833   
     47. B(H  46,C  18)                  1.0893         0.360991   
     48. B(H  47,C  19)                  1.0827         0.369947   
     49. B(H  48,C  20)                  1.1036         0.342604   
     50. B(H  49,C  20)                  1.0957         0.352616   
     51. B(H  50,O   0)                  0.9636         0.513171   
     52. A(C  20,O   0,H  50)          108.6659         0.358638   
     53. A(C   2,C   1,C   7)          110.0737         0.361064   
     54. A(C   2,C   1,C   4)          110.6751         0.363527   
     55. A(C   7,C   1,C   8)          108.9593         0.360963   
     56. A(C   4,C   1,C   7)          109.5239         0.363254   
     57. A(C   4,C   1,C   8)          109.6621         0.363425   
     58. A(C   2,C   1,C   8)          107.9117         0.361234   
     59. A(C   1,C   2,H  21)          108.8895         0.322928   
     60. A(H  21,C   2,H  22)          107.7678         0.290010   
     61. A(C   1,C   2,H  22)          109.2747         0.323013   
     62. A(C   1,C   2,C   3)          111.8175         0.364568   
     63. A(C   3,C   2,H  22)          110.3767         0.325791   
     64. A(C   3,C   2,H  21)          108.6144         0.325705   
     65. A(C   2,C   3,C   5)          109.0457         0.367399   
     66. A(C   5,C   3,H  23)          110.0173         0.325422   
     67. A(H  23,C   3,H  24)          107.6636         0.290330   
     68. A(C   5,C   3,H  24)          109.7979         0.325702   
     69. A(C   2,C   3,H  24)          110.0865         0.326076   
     70. A(C   2,C   3,H  23)          110.2182         0.325796   
     71. A(C   1,C   4,C   9)          114.2207         0.380740   
     72. A(C   6,C   4,C   9)          122.8774         0.429426   
     73. A(C   1,C   4,C   6)          122.8784         0.411919   
     74. A(H  25,C   5,H  26)          106.8687         0.289265   
     75. A(C   3,C   5,H  25)          109.3441         0.324621   
     76. A(C   6,C   5,H  26)          109.5651         0.328617   
     77. A(C   3,C   5,H  26)          110.0166         0.325250   
     78. A(C   6,C   5,H  25)          107.9889         0.327979   
     79. A(C   3,C   5,C   6)          112.8600         0.370921   
     80. A(C   4,C   6,C   5)          122.9633         0.417244   
     81. A(C   5,C   6,C  10)          113.3234         0.375739   
     82. A(C   4,C   6,C  10)          123.7131         0.418163   
     83. A(H  28,C   7,H  29)          107.9907         0.291629   
     84. A(H  27,C   7,H  29)          108.6614         0.291625   
     85. A(H  27,C   7,H  28)          108.0153         0.291860   
     86. A(C   1,C   7,H  28)          110.9630         0.323813   
     87. A(C   1,C   7,H  27)          110.9953         0.323808   
     88. A(C   1,C   7,H  29)          110.1198         0.323541   
     89. A(H  30,C   8,H  32)          108.5054         0.291417   
     90. A(C   1,C   8,H  32)          110.3838         0.323742   
     91. A(H  30,C   8,H  31)          108.3530         0.291641   
     92. A(C   1,C   8,H  31)          111.4420         0.324001   
     93. A(C   1,C   8,H  30)          109.9689         0.323659   
     94. A(H  31,C   8,H  32)          108.1045         0.291712   
     95. A(C  11,C   9,H  33)          119.6195         0.366080   
     96. A(C   4,C   9,H  33)          115.5116         0.339960   
     97. A(C   4,C   9,C  11)          124.7836         0.428567   
     98. A(H  34,C  10,H  36)          107.3642         0.290768   
     99. A(C   6,C  10,H  36)          110.3949         0.329803   
    100. A(H  34,C  10,H  35)          108.7866         0.291540   
    101. A(C   6,C  10,H  35)          111.8708         0.330724   
    102. A(C   6,C  10,H  34)          109.8434         0.329930   
    103. A(H  35,C  10,H  36)          108.4556         0.291432   
    104. A(C   9,C  11,C  12)          126.1199         0.433779   
    105. A(C  12,C  11,H  37)          115.4154         0.343630   
    106. A(C   9,C  11,H  37)          118.4460         0.365882   
    107. A(C  13,C  12,C  14)          123.7103         0.413861   
    108. A(C  11,C  12,C  14)          118.5223         0.429588   
    109. A(C  11,C  12,C  13)          117.7675         0.391429   
    110. A(H  39,C  13,H  40)          108.0767         0.290909   
    111. A(H  38,C  13,H  40)          108.2982         0.291847   
    112. A(C  12,C  13,H  40)          110.0834         0.330395   
    113. A(H  38,C  13,H  39)          108.2274         0.291749   
    114. A(C  12,C  13,H  39)          110.0539         0.330279   
    115. A(C  12,C  13,H  38)          111.9924         0.331399   
    116. A(C  12,C  14,C  15)          127.9657         0.434331   
    117. A(C  15,C  14,H  41)          114.8346         0.346729   
    118. A(C  12,C  14,H  41)          117.1994         0.362043   
    119. A(C  14,C  15,C  16)          122.5093         0.436532   
    120. A(C  16,C  15,H  42)          119.3778         0.364937   
    121. A(C  14,C  15,H  42)          118.1128         0.347810   
    122. A(C  15,C  16,C  17)          126.2011         0.431541   
    123. A(C  17,C  16,H  43)          115.4932         0.343211   
    124. A(C  15,C  16,H  43)          118.3057         0.363983   
    125. A(C  18,C  17,C  19)          122.4245         0.417327   
    126. A(C  16,C  17,C  19)          119.3528         0.433575   
    127. A(C  16,C  17,C  18)          118.2227         0.390734   
    128. A(H  45,C  18,H  46)          108.6393         0.291801   
    129. A(H  44,C  18,H  46)          108.1478         0.291113   
    130. A(C  17,C  18,H  46)          110.1518         0.330029   
    131. A(H  44,C  18,H  45)          108.4233         0.291849   
    132. A(C  17,C  18,H  45)          111.4286         0.330907   
    133. A(C  17,C  18,H  44)          109.9673         0.330086   
    134. A(C  17,C  19,C  20)          126.5945         0.417871   
    135. A(C  20,C  19,H  47)          114.3096         0.331772   
    136. A(C  17,C  19,H  47)          119.0938         0.365782   
    137. A(O   0,C  20,C  19)          113.0091         0.390018   
    138. A(H  48,C  20,H  49)          107.7973         0.287630   
    139. A(C  19,C  20,H  49)          110.6913         0.329150   
    140. A(O   0,C  20,H  49)          105.0471         0.339604   
    141. A(C  19,C  20,H  48)          110.1812         0.327589   
    142. A(O   0,C  20,H  48)          109.8847         0.337975   
    143. D(C   3,C   2,C   1,C   7)    -74.4332         0.010808   
    144. D(C   3,C   2,C   1,C   8)    166.7741         0.010808   
    145. D(H  21,C   2,C   1,C   8)     46.7492         0.010808   
    146. D(C   3,C   2,C   1,C   4)     46.7791         0.010808   
    147. D(H  21,C   2,C   1,C   7)    165.5419         0.010808   
    148. D(H  21,C   2,C   1,C   4)    -73.2458         0.010808   
    149. D(C   5,C   3,C   2,H  22)    175.2929         0.011927   
    150. D(H  23,C   3,C   2,H  22)     54.4260         0.011927   
    151. D(C   5,C   3,C   2,C   1)    -62.8369         0.011927   
    152. D(H  23,C   3,C   2,C   1)    176.2962         0.011927   
    153. D(H  23,C   3,C   2,H  21)    -63.5178         0.011927   
    154. D(C   5,C   3,C   2,H  21)     57.3491         0.011927   
    155. D(C   6,C   4,C   1,C   8)   -136.1766         0.010817   
    156. D(C   6,C   4,C   1,C   7)    104.3014         0.010817   
    157. D(C   6,C   4,C   1,C   2)    -17.2354         0.010817   
    158. D(C   9,C   4,C   1,C   2)    164.4821         0.010817   
    159. D(C   9,C   4,C   1,C   7)    -73.9811         0.010817   
    160. D(H  25,C   5,C   3,C   2)    -73.2102         0.011770   
    161. D(H  25,C   5,C   3,H  23)     47.7795         0.011770   
    162. D(C   6,C   5,C   3,H  24)    -73.6893         0.011770   
    163. D(C   6,C   5,C   3,C   2)     47.0028         0.011770   
    164. D(H  25,C   5,C   3,H  24)    166.0978         0.011770   
    165. D(C   6,C   5,C   3,H  23)    167.9925         0.011770   
    166. D(C   4,C   6,C   5,H  26)   -141.7732         0.012410   
    167. D(C   4,C   6,C   5,H  25)    102.1747         0.012410   
    168. D(C   4,C   6,C   5,C   3)    -18.8124         0.012410   
    169. D(C  10,C   6,C   4,C   9)      1.8537         0.040473   
    170. D(C  10,C   6,C   4,C   1)   -176.2812         0.040473   
    171. D(C   5,C   6,C   4,C   9)   -178.3472         0.040473   
    172. D(C  10,C   6,C   5,C   3)    161.0056         0.012410   
    173. D(C   5,C   6,C   4,C   1)      3.5179         0.040473   
    174. D(C  10,C   6,C   5,H  25)    -78.0073         0.012410   
    175. D(H  28,C   7,C   1,C   8)    -55.4996         0.010719   
    176. D(H  28,C   7,C   1,C   4)     64.4534         0.010719   
    177. D(H  28,C   7,C   1,C   2)   -173.6484         0.010719   
    178. D(H  27,C   7,C   1,C   8)   -175.6171         0.010719   
    179. D(H  27,C   7,C   1,C   4)    -55.6641         0.010719   
    180. D(H  27,C   7,C   1,C   2)     66.2341         0.010719   
    181. D(H  31,C   8,C   1,C   7)     55.2486         0.010774   
    182. D(H  31,C   8,C   1,C   4)    -64.6189         0.010774   
    183. D(H  31,C   8,C   1,C   2)    174.7497         0.010774   
    184. D(H  30,C   8,C   1,C   7)    -64.9253         0.010774   
    185. D(H  30,C   8,C   1,C   4)    175.2072         0.010774   
    186. D(H  30,C   8,C   1,C   2)     54.5758         0.010774   
    187. D(H  33,C   9,C   4,C   6)   -132.7266         0.015740   
    188. D(H  33,C   9,C   4,C   1)     45.5559         0.015740   
    189. D(C  11,C   9,C   4,C   6)     50.6592         0.015740   
    190. D(C  11,C   9,C   4,C   1)   -131.0582         0.015740   
    191. D(H  36,C  10,C   6,C   4)   -106.4921         0.012710   
    192. D(H  35,C  10,C   6,C   5)   -165.4329         0.012710   
    193. D(H  35,C  10,C   6,C   4)     14.3836         0.012710   
    194. D(H  34,C  10,C   6,C   5)    -44.5166         0.012710   
    195. D(H  34,C  10,C   6,C   4)    135.2998         0.012710   
    196. D(H  37,C  11,C   9,H  33)   -175.7438         0.039494   
    197. D(H  37,C  11,C   9,C   4)      0.7411         0.039494   
    198. D(C  12,C  11,C   9,H  33)      2.6048         0.039494   
    199. D(C  12,C  11,C   9,C   4)    179.0897         0.039494   
    200. D(C  14,C  12,C  11,H  37)      1.0958         0.018031   
    201. D(C  14,C  12,C  11,C   9)   -177.2966         0.018031   
    202. D(C  13,C  12,C  11,H  37)   -178.9096         0.018031   
    203. D(C  13,C  12,C  11,C   9)      2.6980         0.018031   
    204. D(H  38,C  13,C  12,C  14)     -3.8399         0.012885   
    205. D(H  38,C  13,C  12,C  11)    176.1657         0.012885   
    206. D(H  40,C  13,C  12,C  11)     55.6226         0.012885   
    207. D(H  39,C  13,C  12,C  14)    116.5935         0.012885   
    208. D(H  39,C  13,C  12,C  11)    -63.4008         0.012885   
    209. D(H  41,C  14,C  12,C  13)    179.8623         0.035103   
    210. D(H  41,C  14,C  12,C  11)     -0.1434         0.035103   
    211. D(C  15,C  14,C  12,C  13)     -0.3154         0.035103   
    212. D(C  15,C  14,C  12,C  11)    179.6789         0.035103   
    213. D(H  42,C  15,C  14,H  41)    179.7821         0.020438   
    214. D(H  42,C  15,C  14,C  12)     -0.0438         0.020438   
    215. D(C  16,C  15,C  14,H  41)     -0.1030         0.020438   
    216. D(C  16,C  15,C  14,C  12)   -179.9288         0.020438   
    217. D(H  43,C  16,C  15,H  42)   -179.8125         0.037316   
    218. D(H  43,C  16,C  15,C  14)      0.0711         0.037316   
    219. D(C  17,C  16,C  15,H  42)      0.0946         0.037316   
    220. D(C  17,C  16,C  15,C  14)    179.9782         0.037316   
    221. D(C  19,C  17,C  16,H  43)     -0.0652         0.017928   
    222. D(C  19,C  17,C  16,C  15)   -179.9745         0.017928   
    223. D(C  18,C  17,C  16,H  43)    179.9305         0.017928   
    224. D(C  18,C  17,C  16,C  15)      0.0211         0.017928   
    225. D(H  46,C  18,C  17,C  16)     59.4980         0.012703   
    226. D(H  45,C  18,C  17,C  19)      0.1413         0.012703   
    227. D(H  45,C  18,C  17,C  16)   -179.8542         0.012703   
    228. D(H  44,C  18,C  17,C  19)    120.3938         0.012703   
    229. D(H  44,C  18,C  17,C  16)    -59.6017         0.012703   
    230. D(H  47,C  19,C  17,C  18)   -179.0816         0.039512   
    231. D(H  47,C  19,C  17,C  16)      0.9139         0.039512   
    232. D(C  20,C  19,C  17,C  18)      0.3649         0.039512   
    233. D(C  20,C  19,C  17,C  16)   -179.6396         0.039512   
    234. D(H  49,C  20,C  19,C  17)    -64.2067         0.012884   
    235. D(H  48,C  20,C  19,H  47)   -125.5991         0.012884   
    236. D(H  48,C  20,C  19,C  17)     54.9316         0.012884   
    237. D(O   0,C  20,C  19,H  47)     -2.2468         0.012884   
    238. D(O   0,C  20,C  19,C  17)    178.2839         0.012884   
    239. D(H  49,C  20,O   0,H  50)   -175.3297         0.021655   
    240. D(H  48,C  20,O   0,H  50)     68.9611         0.021655   
    241. D(C  19,C  20,O   0,H  50)    -54.5549         0.021655   
    -----------------------------------------------------------------

Number of atoms                         .... 51
Number of degrees of freedom            .... 241


         *************************************************************
         *                GEOMETRY OPTIMIZATION CYCLE   1            *
         *************************************************************
---------------------------------
CARTESIAN COORDINATES (ANGSTROEM)
---------------------------------
  O      8.258735    0.547493    1.446402
  C     -4.260058    1.400324   -2.183274
  C     -5.496099    1.322543   -1.277381
  C     -5.938226    2.698399   -0.805485
  C     -3.201464    2.312085   -1.572481
  C     -4.830763    3.313746    0.038194
  C     -3.473144    3.191898   -0.600103
  C     -4.655124    1.929492   -3.569664
  C     -3.694925   -0.018791   -2.333612
  C     -1.873832    2.171215   -2.166573
  C     -2.464768    4.154167   -0.041078
  C     -0.736503    2.014576   -1.471235
  C      0.585338    1.854607   -2.027413
  C      0.728941    1.923374   -3.518775
  C      1.624887    1.651298   -1.179326
  C      3.000412    1.463283   -1.506510
  C      3.948968    1.267090   -0.567195
  C      5.358678    1.068520   -0.807376
  C      5.845092    1.076554   -2.228239
  C      6.184116    0.884487    0.234827
  C      7.667609    0.672207    0.173869
  H     -5.255494    0.714271   -0.402114
  H     -6.306827    0.826346   -1.815463
  H     -6.855612    2.619198   -0.218038
  H     -6.148595    3.338867   -1.663046
  H     -4.793642    2.810675    1.011560
  H     -5.050283    4.366627    0.233471
  H     -4.988600    2.962432   -3.511756
  H     -3.814014    1.885806   -4.256758
  H     -5.460223    1.326402   -3.985109
  H     -4.472073   -0.692601   -2.689753
  H     -2.869377   -0.044890   -3.039865
  H     -3.332107   -0.385687   -1.375674
  H     -1.847852    2.142310   -3.247181
  H     -2.911868    5.143322    0.056615
  H     -1.584121    4.229199   -0.672028
  H     -2.150323    3.839356    0.954551
  H     -0.793667    1.976756   -0.391240
  H      1.765693    1.858485   -3.830378
  H      0.180832    1.104665   -3.985222
  H      0.317819    2.861010   -3.891373
  H      1.401001    1.622578   -0.118832
  H      3.282038    1.478527   -2.548221
  H      3.646508    1.251929    0.472997
  H      5.350336    0.289253   -2.795148
  H      6.916732    0.915588   -2.281256
  H      5.612672    2.030977   -2.699079
  H      5.773124    0.873728    1.236383
  H      8.147314    1.494807   -0.383853
  H      7.903715   -0.264899   -0.342541
  H      8.019809    1.317424    1.974228

----------------------------
CARTESIAN COORDINATES (A.U.)
----------------------------
  NO LB      ZA    FRAG     MASS         X           Y           Z
   0 O     8.0000    0    15.999   15.606747    1.034613    2.733304
   1 C     6.0000    0    12.011   -8.050343    2.646229   -4.125790
   2 C     6.0000    0    12.011  -10.386122    2.499244   -2.413901
   3 C     6.0000    0    12.011  -11.221621    5.099235   -1.522147
   4 C     6.0000    0    12.011   -6.049890    4.369207   -2.971559
   5 C     6.0000    0    12.011   -9.128819    6.262073    0.072176
   6 C     6.0000    0    12.011   -6.563291    6.031812   -1.134030
   7 C     6.0000    0    12.011   -8.796910    3.646212   -6.745688
   8 C     6.0000    0    12.011   -6.982396   -0.035511   -4.409888
   9 C     6.0000    0    12.011   -3.541029    4.103002   -4.094229
  10 C     6.0000    0    12.011   -4.657736    7.850238   -0.077626
  11 C     6.0000    0    12.011   -1.391789    3.806997   -2.780231
  12 C     6.0000    0    12.011    1.106129    3.504699   -3.831255
  13 C     6.0000    0    12.011    1.377498    3.634650   -6.649521
  14 C     6.0000    0    12.011    3.070591    3.120501   -2.228603
  15 C     6.0000    0    12.011    5.669956    2.765204   -2.846892
  16 C     6.0000    0    12.011    7.462467    2.394453   -1.071843
  17 C     6.0000    0    12.011   10.126433    2.019210   -1.525720
  18 C     6.0000    0    12.011   11.045623    2.034392   -4.210761
  19 C     6.0000    0    12.011   11.686285    1.671437    0.443758
  20 C     6.0000    0    12.011   14.489681    1.270288    0.328565
  21 H     1.0000    0     1.008   -9.931444    1.349777   -0.759885
  22 H     1.0000    0     1.008  -11.918177    1.561568   -3.430729
  23 H     1.0000    0     1.008  -12.955229    4.949567   -0.412032
  24 H     1.0000    0     1.008  -11.619161    6.309544   -3.142701
  25 H     1.0000    0     1.008   -9.058670    5.311406    1.911572
  26 H     1.0000    0     1.008   -9.543652    8.251729    0.441197
  27 H     1.0000    0     1.008   -9.427088    5.598185   -6.636257
  28 H     1.0000    0     1.008   -7.207443    3.563657   -8.044108
  29 H     1.0000    0     1.008  -10.318326    2.506536   -7.530765
  30 H     1.0000    0     1.008   -8.450994   -1.308825   -5.082897
  31 H     1.0000    0     1.008   -5.422336   -0.084830   -5.744512
  32 H     1.0000    0     1.008   -6.296770   -0.728844   -2.599647
  33 H     1.0000    0     1.008   -3.491933    4.048379   -6.136282
  34 H     1.0000    0     1.008   -5.502634    9.719470    0.106986
  35 H     1.0000    0     1.008   -2.993555    7.992027   -1.269950
  36 H     1.0000    0     1.008   -4.063522    7.255331    1.803840
  37 H     1.0000    0     1.008   -1.499813    3.735527   -0.739336
  38 H     1.0000    0     1.008    3.336676    3.512028   -7.238365
  39 H     1.0000    0     1.008    0.341723    2.087514   -7.530977
  40 H     1.0000    0     1.008    0.600591    5.406525   -7.353630
  41 H     1.0000    0     1.008    2.647509    3.066229   -0.224560
  42 H     1.0000    0     1.008    6.202153    2.794012   -4.815439
  43 H     1.0000    0     1.008    6.890902    2.365802    0.893836
  44 H     1.0000    0     1.008   10.110670    0.546609   -5.282064
  45 H     1.0000    0     1.008   13.070729    1.730211   -4.310948
  46 H     1.0000    0     1.008   10.606413    3.837991   -5.100520
  47 H     1.0000    0     1.008   10.909623    1.651107    2.336425
  48 H     1.0000    0     1.008   15.396192    2.824775   -0.725376
  49 H     1.0000    0     1.008   14.935857   -0.500587   -0.647310
  50 H     1.0000    0     1.008   15.155242    2.489570    3.730750

--------------------------------
INTERNAL COORDINATES (ANGSTROEM)
--------------------------------
 O      0   0   0     0.000000000000     0.00000000     0.00000000
 C      1   0   0    13.062237397768     0.00000000     0.00000000
 C      2   1   0     1.534434625389   127.20445600     0.00000000
 C      3   2   1     1.520244016557   111.81754520    92.07996372
 C      2   1   3     1.524794057633    42.46930661    80.04657795
 C      4   3   2     1.522143787284   109.04567167   297.16311396
 C      5   2   1     1.339178627842   122.87844434   219.74616089
 C      2   1   5     1.535634492636   121.32758050    85.09438315
 C      2   1   5     1.534883193316    67.29275532   184.16225205
 C      5   2   1     1.461299448674   114.22069570    41.46365039
 C      7   5   2     1.501763708024   123.71305676   183.71878902
 C     10   5   2     1.342217535302   124.78358120   228.94175734
 C     12  10   5     1.442978886257   126.11989671   179.08965413
 C     13  12  10     1.499837120426   117.76745297     2.69799324
 C     13  12  10     1.356925871216   118.52229256   182.70336614
 C     15  13  12     1.426347881305   127.96574606   179.67887073
 C     16  15  13     1.349282630030   122.50925230   180.07122607
 C     17  16  15     1.443744974076   126.20106587   179.97820510
 C     18  17  16     1.501836528302   118.22265797     0.00000000
 C     18  17  16     1.342163756545   119.35279645   180.02546447
 C      1   2   3     1.408660230918    48.77777135   176.96192433
 H      3   2   1     1.092693253022   108.88954158   332.05505817
 H      3   2   1     1.092256437330   109.27473959   214.58142665
 H      4   3   2     1.092228958387   110.21816399   176.29621196
 H      4   3   2     1.090808979531   110.08647442    57.67813546
 H      6   4   3     1.096312281661   109.34410486   286.78980353
 H      6   4   3     1.093105611157   110.01660249   169.71180716
 H      8   2   1     1.086979472538   110.99526250   258.79414246
 H      8   2   1     1.086955889694   110.96298646    18.91161516
 H      8   2   1     1.088345878739   110.11975371   138.42348344
 H      9   2   1     1.088492195995   109.96885527   178.19024880
 H      9   2   1     1.086739887033   111.44195645   298.36416701
 H      9   2   1     1.088069374712   110.38380472    58.50277433
 H     10   5   2     1.081306568471   115.51158859    45.55594947
 H     11   7   5     1.089894576198   109.84339809   135.29978344
 H     11   7   5     1.085940393495   111.87076137    14.38356927
 H     11   7   5     1.090531031769   110.39490289   253.50792285
 H     12  10   5     1.082167989373   118.44599388     0.74106600
 H     14  13  12     1.084510068506   111.99238062   176.16573933
 H     14  13  12     1.090082436982   110.05394303   296.59917463
 H     14  13  12     1.089500359284   110.08336371    55.62260842
 H     15  13  12     1.084249418871   117.19943323   359.85659280
 H     16  15  13     1.079215496189   118.11281267   359.95623427
 H     17  16  15     1.083379873188   118.30570311     0.07114762
 H     19  18  17     1.089041995850   109.96730582   300.39830515
 H     19  18  17     1.084957299961   111.42859860   180.14575712
 H     19  18  17     1.089327475045   110.15184074    59.49797677
 H     20  18  17     1.082656279041   119.09377315     0.91391774
 H     21   1   2     1.103557689050   109.88472172   129.68225904
 H     21   1   2     1.095716725446   105.04711201   245.39145143
 H      1   2   3     0.963575735949    82.09121403   300.41828672

---------------------------
INTERNAL COORDINATES (A.U.)
---------------------------
 O      0   0   0     0.000000000000     0.00000000     0.00000000
 C      1   0   0    24.684051378046     0.00000000     0.00000000
 C      2   1   0     2.899661212392   127.20445600     0.00000000
 C      3   2   1     2.872844848025   111.81754520    92.07996372
 C      2   1   3     2.881443179556    42.46930661    80.04657795
 C      4   3   2     2.876434894416   109.04567167   297.16311396
 C      5   2   1     2.530680851023   122.87844434   219.74616089
 C      2   1   5     2.901928632884   121.32758050    85.09438315
 C      2   1   5     2.900508882925    67.29275532   184.16225205
 C      5   2   1     2.761455757644   114.22069570    41.46365039
 C      7   5   2     2.837922126027   123.71305676   183.71878902
 C     10   5   2     2.536423553868   124.78358120   228.94175734
 C     12  10   5     2.726834912056   126.11989671   179.08965413
 C     13  12  10     2.834281403095   117.76745297     2.69799324
 C     13  12  10     2.564218280630   118.52229256   182.70336614
 C     15  13  12     2.695406867365   127.96574606   179.67887073
 C     16  15  13     2.549774648013   122.50925230   180.07122607
 C     17  16  15     2.728282608228   126.20106587   179.97820510
 C     18  17  16     2.838059736410   118.22265797     0.00000000
 C     18  17  16     2.536321926745   119.35279645   180.02546447
 C      1   2   3     2.661982052181    48.77777135   176.96192433
 H      3   2   1     2.064890996595   108.88954158   332.05505817
 H      3   2   1     2.064065534566   109.27473959   214.58142665
 H      4   3   2     2.064013606889   110.21816399   176.29621196
 H      4   3   2     2.061330235736   110.08647442    57.67813546
 H      6   4   3     2.071729969593   109.34410486   286.78980353
 H      6   4   3     2.065670240539   110.01660249   169.71180716
 H      8   2   1     2.054093516291   110.99526250   258.79414246
 H      8   2   1     2.054048951175   110.96298646    18.91161516
 H      8   2   1     2.056675649799   110.11975371   138.42348344
 H      9   2   1     2.056952149341   109.96885527   178.19024880
 H      9   2   1     2.053640765301   111.44195645   298.36416701
 H      9   2   1     2.056153132913   110.38380472    58.50277433
 H     10   5   2     2.043373281220   115.51158859    45.55594947
 H     11   7   5     2.059602263860   109.84339809   135.29978344
 H     11   7   5     2.052129941467   111.87076137    14.38356927
 H     11   7   5     2.060804990587   110.39490289   253.50792285
 H     12  10   5     2.045001130811   118.44599388     0.74106600
 H     14  13  12     2.049427018957   111.99238062   176.16573933
 H     14  13  12     2.059957269293   110.05394303   296.59917463
 H     14  13  12     2.058857301856   110.08336371    55.62260842
 H     15  13  12     2.048934462530   117.19943323   359.85659280
 H     16  15  13     2.039421727282   118.11281267   359.95623427
 H     17  16  15     2.047291259328   118.30570311     0.07114762
 H     19  18  17     2.057991120496   109.96730582   300.39830515
 H     19  18  17     2.050272163926   111.42859860   180.14575712
 H     19  18  17     2.058530597991   110.15184074    59.49797677
 H     20  18  17     2.045923864558   119.09377315     0.91391774
 H     21   1   2     2.085421805288   109.88472172   129.68225904
 H     21   1   2     2.070604531451   105.04711201   245.39145143
 H      1   2   3     1.820894250234    82.09121403   300.41828672

---------------------
BASIS SET INFORMATION
---------------------
There are 3 groups of distinct atoms

 Group   1 Type O   : 11s6p2d contracted to 5s3p2d pattern {62111/411/11}
 Group   2 Type C   : 11s6p1d contracted to 5s3p1d pattern {62111/411/1}
 Group   3 Type H   : 5s contracted to 3s pattern {311}

Atom   0O    basis set group =>   1
Atom   1C    basis set group =>   2
Atom   2C    basis set group =>   2
Atom   3C    basis set group =>   2
Atom   4C    basis set group =>   2
Atom   5C    basis set group =>   2
Atom   6C    basis set group =>   2
Atom   7C    basis set group =>   2
Atom   8C    basis set group =>   2
Atom   9C    basis set group =>   2
Atom  10C    basis set group =>   2
Atom  11C    basis set group =>   2
Atom  12C    basis set group =>   2
Atom  13C    basis set group =>   2
Atom  14C    basis set group =>   2
Atom  15C    basis set group =>   2
Atom  16C    basis set group =>   2
Atom  17C    basis set group =>   2
Atom  18C    basis set group =>   2
Atom  19C    basis set group =>   2
Atom  20C    basis set group =>   2
Atom  21H    basis set group =>   3
Atom  22H    basis set group =>   3
Atom  23H    basis set group =>   3
Atom  24H    basis set group =>   3
Atom  25H    basis set group =>   3
Atom  26H    basis set group =>   3
Atom  27H    basis set group =>   3
Atom  28H    basis set group =>   3
Atom  29H    basis set group =>   3
Atom  30H    basis set group =>   3
Atom  31H    basis set group =>   3
Atom  32H    basis set group =>   3
Atom  33H    basis set group =>   3
Atom  34H    basis set group =>   3
Atom  35H    basis set group =>   3
Atom  36H    basis set group =>   3
Atom  37H    basis set group =>   3
Atom  38H    basis set group =>   3
Atom  39H    basis set group =>   3
Atom  40H    basis set group =>   3
Atom  41H    basis set group =>   3
Atom  42H    basis set group =>   3
Atom  43H    basis set group =>   3
Atom  44H    basis set group =>   3
Atom  45H    basis set group =>   3
Atom  46H    basis set group =>   3
Atom  47H    basis set group =>   3
Atom  48H    basis set group =>   3
Atom  49H    basis set group =>   3
Atom  50H    basis set group =>   3
---------------------------------
AUXILIARY/J BASIS SET INFORMATION
---------------------------------
There are 3 groups of distinct atoms

 Group   1 Type O   : 8s3p3d contracted to 6s3p3d pattern {311111/111/111}
 Group   2 Type C   : 8s3p3d contracted to 6s3p3d pattern {311111/111/111}
 Group   3 Type H   : 5s2p contracted to 3s1p pattern {311/2}

Atom   0O    basis set group =>   1
Atom   1C    basis set group =>   2
Atom   2C    basis set group =>   2
Atom   3C    basis set group =>   2
Atom   4C    basis set group =>   2
Atom   5C    basis set group =>   2
Atom   6C    basis set group =>   2
Atom   7C    basis set group =>   2
Atom   8C    basis set group =>   2
Atom   9C    basis set group =>   2
Atom  10C    basis set group =>   2
Atom  11C    basis set group =>   2
Atom  12C    basis set group =>   2
Atom  13C    basis set group =>   2
Atom  14C    basis set group =>   2
Atom  15C    basis set group =>   2
Atom  16C    basis set group =>   2
Atom  17C    basis set group =>   2
Atom  18C    basis set group =>   2
Atom  19C    basis set group =>   2
Atom  20C    basis set group =>   2
Atom  21H    basis set group =>   3
Atom  22H    basis set group =>   3
Atom  23H    basis set group =>   3
Atom  24H    basis set group =>   3
Atom  25H    basis set group =>   3
Atom  26H    basis set group =>   3
Atom  27H    basis set group =>   3
Atom  28H    basis set group =>   3
Atom  29H    basis set group =>   3
Atom  30H    basis set group =>   3
Atom  31H    basis set group =>   3
Atom  32H    basis set group =>   3
Atom  33H    basis set group =>   3
Atom  34H    basis set group =>   3
Atom  35H    basis set group =>   3
Atom  36H    basis set group =>   3
Atom  37H    basis set group =>   3
Atom  38H    basis set group =>   3
Atom  39H    basis set group =>   3
Atom  40H    basis set group =>   3
Atom  41H    basis set group =>   3
Atom  42H    basis set group =>   3
Atom  43H    basis set group =>   3
Atom  44H    basis set group =>   3
Atom  45H    basis set group =>   3
Atom  46H    basis set group =>   3
Atom  47H    basis set group =>   3
Atom  48H    basis set group =>   3
Atom  49H    basis set group =>   3
Atom  50H    basis set group =>   3


           ************************************************************
           *        Program running with 16 parallel MPI-processes    *
           *              working on a common directory               *
           ************************************************************
------------------------------------------------------------------------------
                             ORCA STARTUP CALCULATIONS
                           -- RI-GTO INTEGRALS CHOSEN --
------------------------------------------------------------------------------
------------------------------------------------------------------------------
                   ___                                                        
                  /   \      - P O W E R E D   B Y -                         
                 /     \                                                     
                 |  |  |   _    _      __       _____    __    __             
                 |  |  |  | |  | |    /  \     |  _  \  |  |  /  |          
                  \  \/   | |  | |   /    \    | | | |  |  | /  /          
                 / \  \   | |__| |  /  /\  \   | |_| |  |  |/  /          
                |  |  |   |  __  | /  /__\  \  |    /   |      \           
                |  |  |   | |  | | |   __   |  |    \   |  |\   \          
                \     /   | |  | | |  |  |  |  | |\  \  |  | \   \       
                 \___/    |_|  |_| |__|  |__|  |_| \__\ |__|  \__/        
                                                                              
                      - O R C A' S   B I G   F R I E N D -                    
                                      &                                       
                       - I N T E G R A L  F E E D E R -                       
                                                                              
 v1 FN, 2020, v2 2021, v3 2022-2024                                           
------------------------------------------------------------------------------


----------------------
SHARK INTEGRAL PACKAGE
----------------------

Number of atoms                             ...     51
Number of basis functions                   ...    494
Number of shells                            ...    280
Maximum angular momentum                    ...      2
Integral batch strategy                     ... SHARK/LIBINT Hybrid
RI-J (if used) integral strategy            ... SPLIT-RIJ (Revised 2003 algorithm where possible)
Printlevel                                  ...      1
Contraction scheme used                     ... SEGMENTED contraction
Prescreening option                         ... SCHWARTZ
   Thresh                                   ... 2.500e-11
   Tcut                                     ... 2.500e-12
   Tpresel                                  ... 2.500e-12 
Coulomb Range Separation                    ... NOT USED
Exchange Range Separation                   ... NOT USED
Multipole approximations                    ... NOT USED
Finite Nucleus Model                        ... NOT USED
CABS basis                                  ... NOT available
Auxiliary Coulomb fitting basis             ... AVAILABLE
   # of basis functions in Aux-J            ...    810
   # of shells in Aux-J                     ...    372
   Maximum angular momentum in Aux-J        ...      2
Auxiliary J/K fitting basis                 ... NOT available
Auxiliary Correlation fitting basis         ... NOT available
Auxiliary 'external' fitting basis          ... NOT available

Checking pre-screening integrals            ... done (  0.0 sec) Dimension = 280
Check shell pair data                       ... done (  0.0 sec)
Shell pair information
Shell pair cut-off parameter TPreSel        ...   2.5e-12
Total number of shell pairs                 ...     39340
Shell pairs after pre-screening             ...     24284
Total number of primitive shell pairs       ...    140737
Primitive shell pairs kept                  ...     55723
          la=0 lb=0:  11251 shell pairs
          la=1 lb=0:   8243 shell pairs
          la=1 lb=1:   1502 shell pairs
          la=2 lb=0:   2297 shell pairs
          la=2 lb=1:    866 shell pairs
          la=2 lb=2:    125 shell pairs

Calculating one electron integrals          ... done (  0.0 sec)
Calculating RI/J V-Matrix + Cholesky decomp.... done (  0.0 sec)
Calculating Nuclear repulsion               ... done (  0.0 sec) ENN=   1563.705012312059 Eh

Diagonalization of the overlap matrix:
Smallest eigenvalue                        ... 2.002e-05
Time for diagonalization                   ...    0.022 sec
Threshold for overlap eigenvalues          ... 1.000e-07
Number of eigenvalues below threshold      ... 0
Time for construction of square roots      ...    0.012 sec
Total time needed                          ...    0.037 sec

-------------------
DFT GRID GENERATION
-------------------

General Integration Accuracy     IntAcc      ... 4.959
Radial Grid Type                 RadialGrid  ... OptM3 with GC (2021)
Angular Grid (max. ang.)         AngularGrid ... 6 (Lebedev-590)
Angular grid pruning method      GridPruning ... 4 (adaptive)
Weight generation scheme         WeightScheme... mBecke (2022)
Basis function cutoff            BFCut       ... 1.0000e-11
Integration weight cutoff        WCut        ... 1.0000e-14
Partially contracted basis set               ... off
Rotationally invariant grid construction     ... off
Angular grids for H and He will be reduced by one unit
Diffuse basis detected: some atoms will have their outermost
                        angular grid increased by 1.

Total number of grid points                  ...   552246
Total number of batches                      ...     8656
Average number of points per batch           ...       63
Average number of grid points per atom       ...    10828
Initializing property integral containers    ... done (  0.0 sec)

SHARK setup successfully completed in   3.9 seconds

Maximum memory used throughout the entire STARTUP-calculation: 123.8 MB


           ************************************************************
           *        Program running with 16 parallel MPI-processes    *
           *              working on a common directory               *
           ************************************************************
-------------------------------------------------------------------------------
                                 ORCA GUESS
                   Start orbitals & Density for SCF / CASSCF
-------------------------------------------------------------------------------

------------
SCF SETTINGS
------------
Hamiltonian:
 Density Functional     Method          .... DFT(GTOs)
 Exchange Functional    Exchange        .... B973C
 Correlation Functional Correlation     .... B973C
 Gradients option       PostSCFGGA      .... off
 RI-approximation to the Coulomb term is turned on
   Number of AuxJ basis functions       .... 810


General Settings:
 Integral files         IntName         .... m1_00_Vitamin_A-GFN2_006-B97-3C-TZ
 Hartree-Fock type      HFTyp           .... RHF
 Total Charge           Charge          ....    0
 Multiplicity           Mult            ....    1
 Number of Electrons    NEL             ....  158
 Basis Dimension        Dim             ....  494
 Nuclear Repulsion      ENuc            ....   1563.7050123121 Eh

Convergence Acceleration:
 AO-DIIS                CNVDIIS         .... on
   Start iteration      DIISMaxIt       ....    12
   Startup error        DIISStart       ....  0.200000
   # of expansion vecs  DIISMaxEq       ....     5
   Bias factor          DIISBfac        ....   1.050
   Max. coefficient     DIISMaxC        ....  10.000
 MO-DIIS                CNVKDIIS        .... off
 Trust-Rad. Augm. Hess. CNVTRAH         .... off
 SOSCF                  CNVSOSCF        .... on
   Start iteration      SOSCFMaxIt      ....   150
   Startup grad/error   SOSCFStart      ....  0.003300
   Hessian update       SOSCFHessUp     .... L-BFGS
 Level Shifting         CNVShift        .... on
   Level shift para.    LevelShift      ....    0.2500
   Turn off err/grad.   ShiftErr        ....    0.0010
 Zerner damping         CNVZerner       .... off
 Static damping         CNVDamp         .... on
   Fraction old density DampFac         ....    0.7000
   Max. Damping (<1)    DampMax         ....    0.9800
   Min. Damping (>=0)   DampMin         ....    0.0000
   Turn off err/grad.   DampErr         ....    0.1000

SCF Procedure:
 Maximum # iterations   MaxIter         ....   800
 SCF integral mode      SCFMode         .... Direct
   Integral package                     .... SHARK and LIBINT hybrid scheme
 Reset frequency        DirectResetFreq ....    20
 Integral Threshold     Thresh          ....  2.500e-11 Eh
 Primitive CutOff       TCut            ....  2.500e-12 Eh

Convergence Tolerance:
 Convergence Check Mode ConvCheckMode   .... Total+1el-Energy
 Convergence forced     ConvForced      .... 0
 Energy Change          TolE            ....  1.000e-08 Eh
 1-El. energy change                    ....  1.000e-05 Eh
 Orbital Gradient       TolG            ....  1.000e-05
 Orbital Rotation angle TolX            ....  1.000e-05
 DIIS Error             TolErr          ....  5.000e-07

--------------------------------
INITIAL GUESS: MINIMAL BASIS EHT
--------------------------------
The minimal basis has 135 functions
EHT matrix was diagonalized
Basis set overlap was calculated now projecting the orbitals
Using GuessMode=FMatrix for the initial guess
C*T matrix was formed
Effective Fockian was calculated
Effective Fockian was diagonalized
Initial density was built
                      ------------------
                      INITIAL GUESS DONE
                      ------------------
             **** ENERGY FILE WAS UPDATED (m1_00_Vitamin_A-GFN2_006-B97-3C-TZ.en.tmp) ****
Finished Guess after   0.2 sec
Maximum memory used throughout the entire GUESS-calculation: 41.5 MB


           ************************************************************
           *        Program running with 16 parallel MPI-processes    *
           *              working on a common directory               *
           ************************************************************

-------------------------------------------------------------------------------------------
                                      ORCA LEAN-SCF
                              memory conserving SCF solver
-------------------------------------------------------------------------------------------

----------------------------------------D-I-I-S--------------------------------------------
Iteration    Energy (Eh)           Delta-E    RMSDP     MaxDP     DIISErr   Damp  Time(sec)
-------------------------------------------------------------------------------------------
               ***  Starting incremental Fock matrix formation  ***
    1    -852.6608996317081619     0.00e+00  4.15e-03  1.27e-01  4.72e-01  0.700   0.7
Warning: op=0 Small HOMO/LUMO gap (   0.080) - skipping pre-diagonalization
         Will do a full diagonalization
    2    -853.2854399663115146    -6.25e-01  4.42e-03  4.52e-01  3.32e-01  0.700   0.8
    3    -853.7060970711108894    -4.21e-01  2.59e-03  1.63e-01  2.32e-01  0.700   0.7
                               ***Turning on AO-DIIS***
    4    -853.9984794924416747    -2.92e-01  1.81e-03  9.79e-02  1.62e-01  0.700   0.7
    5    -854.1995724276739566    -2.01e-01  1.26e-03  5.31e-02  1.13e-01  0.700   0.7
    6    -854.3442150965470319    -1.45e-01  8.88e-04  3.20e-02  7.92e-02  0.700   0.7
    7    -854.4464081426731354    -1.02e-01  2.11e-03  7.55e-02  5.54e-02  0.000   0.7
    8    -854.6830746773875944    -2.37e-01  4.77e-04  6.64e-02  2.13e-02  0.000   0.8
    9    -854.6834879588523108    -4.13e-04  6.06e-05  3.71e-03  1.44e-02  0.000   0.7
                              *** Initializing SOSCF ***
---------------------------------------S-O-S-C-F--------------------------------------
Iteration    Energy (Eh)           Delta-E    RMSDP     MaxDP     MaxGrad    Time(sec)
--------------------------------------------------------------------------------------
   10    -854.6837269332863798    -2.39e-04  4.04e-05  4.41e-03  2.42e-03     0.8
               *** Restarting incremental Fock matrix formation ***
   11    -854.6837408989731557    -1.40e-05  7.13e-05  1.13e-02  1.11e-04     0.8
   12    -854.6837381642531000     2.73e-06  3.66e-05  5.62e-03  2.57e-04     0.7
   13    -854.6837419223584220    -3.76e-06  1.03e-05  8.89e-04  4.01e-05     0.6
   14    -854.6837417095680394     2.13e-07  6.23e-06  8.11e-04  9.88e-05     0.6
   15    -854.6837419692647018    -2.60e-07  4.76e-06  3.79e-04  4.06e-06     0.6
   16    -854.6837419616726947     7.59e-09  2.46e-06  2.10e-04  1.18e-05     0.6
                 **** Energy Check signals convergence ****

               *****************************************************
               *                     SUCCESS                       *
               *           SCF CONVERGED AFTER  16 CYCLES          *
               *****************************************************

             **** ENERGY FILE WAS UPDATED (m1_00_Vitamin_A-GFN2_006-B97-3C-TZ.en.tmp) ****

----------------
TOTAL SCF ENERGY
----------------

Total Energy       :       -854.68374196167269 Eh          -23257.12699 eV

Components:
Nuclear Repulsion  :       1563.70501231205890 Eh           42550.57661 eV
Electronic Energy  :      -2418.38875427373159 Eh          -65807.70360 eV
One Electron Energy:      -4261.60848097771031 Eh         -115964.26228 eV
Two Electron Energy:       1843.21972670397872 Eh           50156.55867 eV

Virial components:
Potential Energy   :      -1706.30797488574854 Eh          -46431.00050 eV
Kinetic Energy     :        851.62423292407584 Eh           23173.87351 eV
Virial Ratio       :          2.00359255751459

DFT components:
N(Alpha)           :       78.999994555586 electrons
N(Beta)            :       78.999994555586 electrons
N(Total)           :      157.999989111173 electrons
E(XC)              :     -127.760337573737 Eh       

---------------
SCF CONVERGENCE
---------------

  Last Energy change         ...   -7.5920e-09  Tolerance :   1.0000e-08
  Last MAX-Density change    ...    2.1014e-04  Tolerance :   1.0000e-07
  Last RMS-Density change    ...    2.4564e-06  Tolerance :   5.0000e-09
  Last DIIS Error            ...    2.4181e-03  Tolerance :   5.0000e-07
  Last Orbital Gradient      ...    1.1844e-05  Tolerance :   1.0000e-05
  Last Orbital Rotation      ...    1.8992e-05  Tolerance :   1.0000e-05


----------------
ORBITAL ENERGIES
----------------

  NO   OCC          E(Eh)            E(eV) 
   0   2.0000     -18.744522      -510.0644 
   1   2.0000      -9.941779      -270.5296 
   2   2.0000      -9.901673      -269.4382 
   3   2.0000      -9.899177      -269.3703 
   4   2.0000      -9.898988      -269.3652 
   5   2.0000      -9.890970      -269.1470 
   6   2.0000      -9.890335      -269.1297 
   7   2.0000      -9.890091      -269.1231 
   8   2.0000      -9.889963      -269.1196 
   9   2.0000      -9.887986      -269.0658 
  10   2.0000      -9.887741      -269.0591 
  11   2.0000      -9.886035      -269.0127 
  12   2.0000      -9.884767      -268.9782 
  13   2.0000      -9.884516      -268.9714 
  14   2.0000      -9.883990      -268.9570 
  15   2.0000      -9.882780      -268.9241 
  16   2.0000      -9.880412      -268.8597 
  17   2.0000      -9.879004      -268.8214 
  18   2.0000      -9.874980      -268.7119 
  19   2.0000      -9.874338      -268.6944 
  20   2.0000      -9.870875      -268.6002 
  21   2.0000      -0.946460       -25.7545 
  22   2.0000      -0.783475       -21.3194 
  23   2.0000      -0.767128       -20.8746 
  24   2.0000      -0.752416       -20.4743 
  25   2.0000      -0.719364       -19.5749 
  26   2.0000      -0.714894       -19.4532 
  27   2.0000      -0.694442       -18.8967 
  28   2.0000      -0.662609       -18.0305 
  29   2.0000      -0.652970       -17.7682 
  30   2.0000      -0.630751       -17.1636 
  31   2.0000      -0.620683       -16.8896 
  32   2.0000      -0.620081       -16.8733 
  33   2.0000      -0.610434       -16.6108 
  34   2.0000      -0.601545       -16.3689 
  35   2.0000      -0.561152       -15.2697 
  36   2.0000      -0.534058       -14.5325 
  37   2.0000      -0.514143       -13.9906 
  38   2.0000      -0.499314       -13.5870 
  39   2.0000      -0.486565       -13.2401 
  40   2.0000      -0.472011       -12.8441 
  41   2.0000      -0.461819       -12.5667 
  42   2.0000      -0.451982       -12.2991 
  43   2.0000      -0.433717       -11.8021 
  44   2.0000      -0.425769       -11.5858 
  45   2.0000      -0.418248       -11.3811 
  46   2.0000      -0.405017       -11.0211 
  47   2.0000      -0.402429       -10.9506 
  48   2.0000      -0.396706       -10.7949 
  49   2.0000      -0.389048       -10.5865 
  50   2.0000      -0.383180       -10.4269 
  51   2.0000      -0.379228       -10.3193 
  52   2.0000      -0.377365       -10.2686 
  53   2.0000      -0.376544       -10.2463 
  54   2.0000      -0.371781       -10.1167 
  55   2.0000      -0.359198        -9.7743 
  56   2.0000      -0.353897        -9.6300 
  57   2.0000      -0.350617        -9.5408 
  58   2.0000      -0.345384        -9.3984 
  59   2.0000      -0.344222        -9.3668 
  60   2.0000      -0.340267        -9.2591 
  61   2.0000      -0.329644        -8.9701 
  62   2.0000      -0.327195        -8.9034 
  63   2.0000      -0.324525        -8.8308 
  64   2.0000      -0.312212        -8.4957 
  65   2.0000      -0.309535        -8.4229 
  66   2.0000      -0.306233        -8.3330 
  67   2.0000      -0.300549        -8.1783 
  68   2.0000      -0.299495        -8.1497 
  69   2.0000      -0.296145        -8.0585 
  70   2.0000      -0.292094        -7.9483 
  71   2.0000      -0.280820        -7.6415 
  72   2.0000      -0.270761        -7.3678 
  73   2.0000      -0.261528        -7.1165 
  74   2.0000      -0.253566        -6.8999 
  75   2.0000      -0.235829        -6.4172 
  76   2.0000      -0.226175        -6.1545 
  77   2.0000      -0.200362        -5.4521 
  78   2.0000      -0.165118        -4.4931 
  79   0.0000      -0.080457        -2.1894 
  80   0.0000      -0.024408        -0.6642 
  81   0.0000       0.005176         0.1409 
  82   0.0000       0.019376         0.5272 
  83   0.0000       0.023492         0.6392 
  84   0.0000       0.027760         0.7554 
  85   0.0000       0.036030         0.9804 
  86   0.0000       0.037525         1.0211 
  87   0.0000       0.042140         1.1467 
  88   0.0000       0.048745         1.3264 
  89   0.0000       0.052214         1.4208 
*Only the first 10 virtual orbitals were printed.

                    ********************************
                    * MULLIKEN POPULATION ANALYSIS *
                    ********************************

-----------------------
MULLIKEN ATOMIC CHARGES
-----------------------
   0 O :   -0.558100
   1 C :   -0.048485
   2 C :   -0.309206
   3 C :   -0.332216
   4 C :    0.301421
   5 C :   -0.305177
   6 C :   -0.015575
   7 C :   -0.556074
   8 C :   -0.454722
   9 C :   -0.341335
  10 C :   -0.576962
  11 C :   -0.361649
  12 C :    0.275669
  13 C :   -0.574103
  14 C :   -0.230255
  15 C :   -0.101220
  16 C :   -0.295443
  17 C :    0.254606
  18 C :   -0.605197
  19 C :   -0.255155
  20 C :   -0.288213
  21 H :    0.164754
  22 H :    0.175552
  23 H :    0.172837
  24 H :    0.167411
  25 H :    0.159359
  26 H :    0.168511
  27 H :    0.176138
  28 H :    0.162686
  29 H :    0.170145
  30 H :    0.170735
  31 H :    0.167645
  32 H :    0.169608
  33 H :    0.176071
  34 H :    0.155608
  35 H :    0.214006
  36 H :    0.166476
  37 H :    0.169162
  38 H :    0.173330
  39 H :    0.179293
  40 H :    0.180930
  41 H :    0.132541
  42 H :    0.153619
  43 H :    0.135989
  44 H :    0.185272
  45 H :    0.194504
  46 H :    0.183703
  47 H :    0.171248
  48 H :    0.174678
  49 H :    0.189100
  50 H :    0.416477
Sum of atomic charges:    0.0000000

--------------------------------
MULLIKEN REDUCED ORBITAL CHARGES
--------------------------------
  0 O s       :     3.810971  s :     3.810971
      pz      :     1.305528  p :     4.717860
      px      :     1.793454
      py      :     1.618878
      dz2     :     0.001928  d :     0.029268
      dxz     :     0.008078
      dyz     :     0.004185
      dx2y2   :     0.008598
      dxy     :     0.006479

  1 C s       :     3.004650  s :     3.004650
      pz      :     0.982587  p :     2.987064
      px      :     1.032599
      py      :     0.971877
      dz2     :     0.011394  d :     0.056772
      dxz     :     0.012942
      dyz     :     0.009473
      dx2y2   :     0.010570
      dxy     :     0.012392

  2 C s       :     3.157916  s :     3.157916
      pz      :     1.075257  p :     3.106117
      px      :     1.031398
      py      :     0.999462
      dz2     :     0.005517  d :     0.045173
      dxz     :     0.010613
      dyz     :     0.011713
      dx2y2   :     0.008283
      dxy     :     0.009046

  3 C s       :     3.200064  s :     3.200064
      pz      :     1.068535  p :     3.087375
      px      :     1.053966
      py      :     0.964874
      dz2     :     0.004929  d :     0.044777
      dxz     :     0.011038
      dyz     :     0.011739
      dx2y2   :     0.010568
      dxy     :     0.006502

  4 C s       :     3.082707  s :     3.082707
      pz      :     0.774717  p :     2.566932
      px      :     0.880570
      py      :     0.911644
      dz2     :     0.009458  d :     0.048940
      dxz     :     0.011112
      dyz     :     0.006811
      dx2y2   :     0.010785
      dxy     :     0.010774

  5 C s       :     3.134578  s :     3.134578
      pz      :     1.055711  p :     3.124597
      px      :     0.944952
      py      :     1.123934
      dz2     :     0.010035  d :     0.046003
      dxz     :     0.009127
      dyz     :     0.007362
      dx2y2   :     0.013044
      dxy     :     0.006435

  6 C s       :     3.174296  s :     3.174296
      pz      :     0.875660  p :     2.793675
      px      :     0.946396
      py      :     0.971620
      dz2     :     0.009765  d :     0.047604
      dxz     :     0.010331
      dyz     :     0.006963
      dx2y2   :     0.010553
      dxy     :     0.009992

  7 C s       :     3.262462  s :     3.262462
      pz      :     1.014198  p :     3.255841
      px      :     1.124114
      py      :     1.117529
      dz2     :     0.007618  d :     0.037771
      dxz     :     0.011553
      dyz     :     0.004699
      dx2y2   :     0.007004
      dxy     :     0.006897

  8 C s       :     3.197196  s :     3.197196
      pz      :     1.135903  p :     3.219479
      px      :     1.102316
      py      :     0.981260
      dz2     :     0.006147  d :     0.038047
      dxz     :     0.010234
      dyz     :     0.006176
      dx2y2   :     0.006082
      dxy     :     0.009408

  9 C s       :     3.214060  s :     3.214060
      pz      :     0.947805  p :     3.085254
      px      :     1.078848
      py      :     1.058601
      dz2     :     0.014573  d :     0.042021
      dxz     :     0.011231
      dyz     :     0.001624
      dx2y2   :     0.007207
      dxy     :     0.007385

 10 C s       :     3.305186  s :     3.305186
      pz      :     1.115999  p :     3.233371
      px      :     1.070135
      py      :     1.047238
      dz2     :     0.008690  d :     0.038405
      dxz     :     0.009297
      dyz     :     0.003834
      dx2y2   :     0.008278
      dxy     :     0.008305

 11 C s       :     3.329094  s :     3.329094
      pz      :     0.929736  p :     2.989529
      px      :     1.059160
      py      :     1.000633
      dz2     :     0.014265  d :     0.043026
      dxz     :     0.011283
      dyz     :     0.001884
      dx2y2   :     0.007505
      dxy     :     0.008089

 12 C s       :     3.161967  s :     3.161967
      pz      :     0.618356  p :     2.513091
      px      :     0.950895
      py      :     0.943840
      dz2     :     0.012797  d :     0.049274
      dxz     :     0.016016
      dyz     :     0.006439
      dx2y2   :     0.006735
      dxy     :     0.007287

 13 C s       :     3.273025  s :     3.273025
      pz      :     0.971809  p :     3.263063
      px      :     1.173682
      py      :     1.117571
      dz2     :     0.010044  d :     0.038016
      dxz     :     0.006528
      dyz     :     0.008088
      dx2y2   :     0.007486
      dxy     :     0.005870

 14 C s       :     3.264504  s :     3.264504
      pz      :     0.833679  p :     2.923253
      px      :     1.070489
      py      :     1.019085
      dz2     :     0.013562  d :     0.042498
      dxz     :     0.011700
      dyz     :     0.001973
      dx2y2   :     0.007483
      dxy     :     0.007779

 15 C s       :     3.066628  s :     3.066628
      pz      :     0.937514  p :     2.992320
      px      :     1.047569
      py      :     1.007237
      dz2     :     0.013227  d :     0.042272
      dxz     :     0.012435
      dyz     :     0.002522
      dx2y2   :     0.006808
      dxy     :     0.007279

 16 C s       :     3.304659  s :     3.304659
      pz      :     0.930118  p :     2.948525
      px      :     1.013585
      py      :     1.004822
      dz2     :     0.013171  d :     0.042259
      dxz     :     0.012331
      dyz     :     0.002569
      dx2y2   :     0.007103
      dxy     :     0.007086

 17 C s       :     3.109551  s :     3.109551
      pz      :     0.701885  p :     2.585814
      px      :     0.931020
      py      :     0.952910
      dz2     :     0.013561  d :     0.050028
      dxz     :     0.015064
      dyz     :     0.007431
      dx2y2   :     0.007153
      dxy     :     0.006818

 18 C s       :     3.305867  s :     3.305867
      pz      :     0.987148  p :     3.261418
      px      :     1.156631
      py      :     1.117639
      dz2     :     0.008804  d :     0.037911
      dxz     :     0.005776
      dyz     :     0.009957
      dx2y2   :     0.009361
      dxy     :     0.004014

 19 C s       :     3.212179  s :     3.212179
      pz      :     1.002594  p :     3.004474
      px      :     0.977139
      py      :     1.024740
      dz2     :     0.012242  d :     0.038502
[...]
114:   1504.83   0.001650    8.34  0.000342  ( 0.018300  0.001959  0.001840)
115:   1509.22   0.001604    8.11  0.000332  (-0.010746  0.005487  0.013643)
116:   1514.73   0.000662    3.34  0.000136  (-0.008006  0.002375  0.008160)
117:   1519.65   0.001650    8.34  0.000339  (-0.011746 -0.014092  0.001496)
118:   1599.34   0.002062   10.42  0.000402  (-0.013561 -0.000505 -0.014768)
119:   1609.95   0.005179   26.17  0.001004  ( 0.029387 -0.010033  0.006292)
120:   1643.71   0.001651    8.34  0.000313  ( 0.011403 -0.007236 -0.011449)
121:   1652.79   0.000424    2.14  0.000080  ( 0.007350 -0.000892  0.005031)
122:   1661.44   0.001825    9.22  0.000343  (-0.018355  0.002102  0.001176)
123:   2938.34   0.008164   41.26  0.000867  (-0.011799  0.003233  0.026785)
124:   2975.11   0.009549   48.26  0.001002  ( 0.002977 -0.021146 -0.023358)
125:   2975.62   0.006307   31.87  0.000661  (-0.015170 -0.017018  0.011903)
126:   2983.73   0.015122   76.42  0.001582  (-0.029210  0.023370  0.013497)
127:   2989.22   0.002694   13.61  0.000281  ( 0.009178  0.012905  0.005516)
128:   2992.75   0.004753   24.02  0.000496  ( 0.006469 -0.017396  0.012294)
129:   2996.83   0.009435   47.68  0.000982  (-0.017480  0.000550 -0.026012)
130:   2997.91   0.010900   55.08  0.001135  ( 0.005676  0.024660  0.022233)
131:   3002.22   0.015124   76.43  0.001572  ( 0.030464 -0.022533 -0.011676)
132:   3002.49   0.004237   21.41  0.000440  (-0.003116  0.000766  0.020738)
133:   3018.37   0.017693   89.41  0.001829  ( 0.041053  0.003278  0.011541)
134:   3020.34   0.006287   31.77  0.000650  (-0.005824  0.015107 -0.019684)
135:   3020.91   0.013395   67.69  0.001384  (-0.021458  0.030385 -0.000024)
136:   3035.55   0.011816   59.71  0.001215  (-0.006722 -0.015354  0.030558)
137:   3042.50   0.003486   17.61  0.000358  ( 0.002060  0.018793 -0.000286)
138:   3050.29   0.003529   17.83  0.000361  ( 0.001677  0.018925 -0.000241)
139:   3060.01   0.001910    9.65  0.000195  ( 0.000231 -0.009647  0.010084)
140:   3064.61   0.021864  110.49  0.002226  ( 0.042910  0.012291  0.015299)
141:   3075.95   0.000800    4.04  0.000081  (-0.004183  0.001121  0.007898)
142:   3076.46   0.006816   34.44  0.000691  ( 0.017883  0.010813 -0.015957)
143:   3079.85   0.006545   33.08  0.000663  (-0.015674  0.019207  0.006972)
144:   3082.71   0.000103    0.52  0.000010  (-0.002914  0.000688  0.001198)
145:   3090.19   0.007825   39.55  0.000790  (-0.007971 -0.001555  0.026912)
146:   3095.42   0.001202    6.07  0.000121  ( 0.002166 -0.004091 -0.009987)
147:   3102.68   0.010751   54.33  0.001081  (-0.023169  0.001252  0.023301)
148:   3108.22   0.001343    6.79  0.000135  (-0.008512  0.003051  0.007283)
149:   3110.10   0.001371    6.93  0.000138  (-0.000763  0.001413  0.011619)
150:   3111.24   0.008351   42.20  0.000838  ( 0.028489 -0.003605 -0.003601)
151:   3131.33   0.007842   39.63  0.000781  (-0.020731  0.002067  0.018639)
152:   3729.10   0.001851    9.36  0.000155  (-0.002714 -0.012023 -0.001728)

* The epsilon (eps) is given for a Dirac delta lineshape.
** The dipole moment derivative (T) already includes vibrational overlap.

The first frequency considered to be a vibration is 6
The total number of vibrations considered is 147


--------------------------
THERMOCHEMISTRY AT 298.15K
--------------------------

Temperature         ...   298.15 K
Pressure            ...     1.00 atm
Total Mass          ...   286.46 AMU
Quasi RRHO          ...     True
Cut-Off Frequency   ...     1.00 cm^-1

Throughout the following assumptions are being made:
  (1) The electronic state is orbitally nondegenerate
  (2) There are no thermally accessible electronically excited states
  (3) Hindered rotations indicated by low frequency modes are not
      treated as such but are treated as vibrations and this may
      cause some error
  (4) All equations used are the standard statistical mechanics
      equations for an ideal gas
  (5) All vibrations are strictly harmonic

freq.      17.29  E(vib)   ...       0.57 
freq.      27.17  E(vib)   ...       0.55 
freq.      33.98  E(vib)   ...       0.55 
freq.      47.24  E(vib)   ...       0.53 
freq.      59.18  E(vib)   ...       0.51 
freq.      63.10  E(vib)   ...       0.51 
freq.      81.69  E(vib)   ...       0.48 
freq.     102.64  E(vib)   ...       0.46 
freq.     111.03  E(vib)   ...       0.45 
freq.     119.10  E(vib)   ...       0.44 
freq.     155.16  E(vib)   ...       0.40 
freq.     161.67  E(vib)   ...       0.39 
freq.     174.09  E(vib)   ...       0.38 
freq.     182.69  E(vib)   ...       0.37 
freq.     185.91  E(vib)   ...       0.37 
freq.     222.24  E(vib)   ...       0.33 
freq.     231.40  E(vib)   ...       0.32 
freq.     235.26  E(vib)   ...       0.32 
freq.     258.75  E(vib)   ...       0.30 
freq.     270.57  E(vib)   ...       0.29 
freq.     274.94  E(vib)   ...       0.28 
freq.     304.17  E(vib)   ...       0.26 
freq.     316.78  E(vib)   ...       0.25 
freq.     319.67  E(vib)   ...       0.25 
freq.     336.25  E(vib)   ...       0.24 
freq.     346.36  E(vib)   ...       0.23 
freq.     352.60  E(vib)   ...       0.22 
freq.     368.49  E(vib)   ...       0.21 
freq.     388.90  E(vib)   ...       0.20 
freq.     413.39  E(vib)   ...       0.19 
freq.     423.69  E(vib)   ...       0.18 
freq.     436.37  E(vib)   ...       0.17 
freq.     476.70  E(vib)   ...       0.15 
freq.     485.80  E(vib)   ...       0.15 
freq.     495.12  E(vib)   ...       0.14 
freq.     522.17  E(vib)   ...       0.13 
freq.     525.45  E(vib)   ...       0.13 
freq.     536.44  E(vib)   ...       0.12 
freq.     581.05  E(vib)   ...       0.11 
freq.     605.37  E(vib)   ...       0.10 
freq.     616.61  E(vib)   ...       0.09 
freq.     646.16  E(vib)   ...       0.09 
freq.     740.26  E(vib)   ...       0.06 
freq.     797.95  E(vib)   ...       0.05 
freq.     801.66  E(vib)   ...       0.05 
freq.     834.61  E(vib)   ...       0.04 
freq.     852.51  E(vib)   ...       0.04 
freq.     859.63  E(vib)   ...       0.04 
freq.     868.27  E(vib)   ...       0.04 
freq.     890.92  E(vib)   ...       0.04 
freq.     895.18  E(vib)   ...       0.03 
freq.     900.04  E(vib)   ...       0.03 
freq.     912.23  E(vib)   ...       0.03 
freq.     937.08  E(vib)   ...       0.03 
freq.     947.85  E(vib)   ...       0.03 
freq.     951.78  E(vib)   ...       0.03 
freq.     969.11  E(vib)   ...       0.03 
freq.     980.26  E(vib)   ...       0.02 
freq.     985.64  E(vib)   ...       0.02 
freq.     990.52  E(vib)   ...       0.02 
freq.    1008.02  E(vib)   ...       0.02 
freq.    1022.85  E(vib)   ...       0.02 
freq.    1025.14  E(vib)   ...       0.02 
freq.    1037.58  E(vib)   ...       0.02 
freq.    1048.88  E(vib)   ...       0.02 
freq.    1049.23  E(vib)   ...       0.02 
freq.    1053.19  E(vib)   ...       0.02 
freq.    1064.61  E(vib)   ...       0.02 
freq.    1081.98  E(vib)   ...       0.02 
freq.    1098.53  E(vib)   ...       0.02 
freq.    1144.79  E(vib)   ...       0.01 
freq.    1156.50  E(vib)   ...       0.01 
freq.    1187.72  E(vib)   ...       0.01 
freq.    1191.46  E(vib)   ...       0.01 
freq.    1201.09  E(vib)   ...       0.01 
freq.    1202.24  E(vib)   ...       0.01 
freq.    1226.44  E(vib)   ...       0.01 
freq.    1230.45  E(vib)   ...       0.01 
freq.    1234.93  E(vib)   ...       0.01 
freq.    1264.56  E(vib)   ...       0.01 
freq.    1282.53  E(vib)   ...       0.01 
freq.    1301.05  E(vib)   ...       0.01 
freq.    1309.11  E(vib)   ...       0.01 
freq.    1332.98  E(vib)   ...       0.01 
freq.    1338.47  E(vib)   ...       0.01 
freq.    1341.02  E(vib)   ...       0.01 
freq.    1348.81  E(vib)   ...       0.01 
freq.    1366.34  E(vib)   ...       0.01 
freq.    1376.21  E(vib)   ...       0.01 
freq.    1383.66  E(vib)   ...       0.00 
freq.    1386.58  E(vib)   ...       0.00 
freq.    1394.65  E(vib)   ...       0.00 
freq.    1397.16  E(vib)   ...       0.00 
freq.    1409.72  E(vib)   ...       0.00 
freq.    1410.40  E(vib)   ...       0.00 
freq.    1418.81  E(vib)   ...       0.00 
freq.    1419.84  E(vib)   ...       0.00 
freq.    1427.47  E(vib)   ...       0.00 
freq.    1475.90  E(vib)   ...       0.00 
freq.    1485.54  E(vib)   ...       0.00 
freq.    1490.12  E(vib)   ...       0.00 
freq.    1491.98  E(vib)   ...       0.00 
freq.    1492.38  E(vib)   ...       0.00 
freq.    1494.06  E(vib)   ...       0.00 
freq.    1496.72  E(vib)   ...       0.00 
freq.    1499.03  E(vib)   ...       0.00 
freq.    1499.51  E(vib)   ...       0.00 
freq.    1501.57  E(vib)   ...       0.00 
freq.    1504.83  E(vib)   ...       0.00 
freq.    1509.22  E(vib)   ...       0.00 
freq.    1514.73  E(vib)   ...       0.00 
freq.    1519.65  E(vib)   ...       0.00 
freq.    1599.34  E(vib)   ...       0.00 
freq.    1609.95  E(vib)   ...       0.00 
freq.    1643.71  E(vib)   ...       0.00 
freq.    1652.79  E(vib)   ...       0.00 
freq.    1661.44  E(vib)   ...       0.00 
freq.    2938.34  E(vib)   ...       0.00 
freq.    2975.11  E(vib)   ...       0.00 
freq.    2975.62  E(vib)   ...       0.00 
freq.    2983.73  E(vib)   ...       0.00 
freq.    2989.22  E(vib)   ...       0.00 
freq.    2992.75  E(vib)   ...       0.00 
freq.    2996.83  E(vib)   ...       0.00 
freq.    2997.91  E(vib)   ...       0.00 
freq.    3002.22  E(vib)   ...       0.00 
freq.    3002.49  E(vib)   ...       0.00 
freq.    3018.37  E(vib)   ...       0.00 
freq.    3020.34  E(vib)   ...       0.00 
freq.    3020.91  E(vib)   ...       0.00 
freq.    3035.55  E(vib)   ...       0.00 
freq.    3042.50  E(vib)   ...       0.00 
freq.    3050.29  E(vib)   ...       0.00 
freq.    3060.01  E(vib)   ...       0.00 
freq.    3064.61  E(vib)   ...       0.00 
freq.    3075.95  E(vib)   ...       0.00 
freq.    3076.46  E(vib)   ...       0.00 
freq.    3079.85  E(vib)   ...       0.00 
freq.    3082.71  E(vib)   ...       0.00 
freq.    3090.19  E(vib)   ...       0.00 
freq.    3095.42  E(vib)   ...       0.00 
freq.    3102.68  E(vib)   ...       0.00 
freq.    3108.22  E(vib)   ...       0.00 
freq.    3110.10  E(vib)   ...       0.00 
freq.    3111.24  E(vib)   ...       0.00 
freq.    3131.33  E(vib)   ...       0.00 
freq.    3729.10  E(vib)   ...       0.00 

------------
INNER ENERGY
------------

The inner energy is: U= E(el) + E(ZPE) + E(vib) + E(rot) + E(trans)
    E(el)   - is the total energy from the electronic structure calculation
              = E(kin-el) + E(nuc-el) + E(el-el) + E(nuc-nuc)
    E(ZPE)  - the the zero temperature vibrational energy from the frequency calculation
    E(vib)  - the the finite temperature correction to E(ZPE) due to population
              of excited vibrational states
    E(rot)  - is the rotational thermal energy
    E(trans)- is the translational thermal energy

Summary of contributions to the inner energy U:
Electronic energy                ...   -854.95841397 Eh
Zero point energy                ...      0.44858410 Eh     281.49 kcal/mol
Thermal vibrational correction   ...      0.02149666 Eh      13.49 kcal/mol
Thermal rotational correction    ...      0.00141627 Eh       0.89 kcal/mol
Thermal translational correction ...      0.00141627 Eh       0.89 kcal/mol
-----------------------------------------------------------------------
Total thermal energy                   -854.48550066 Eh


Summary of corrections to the electronic energy:
(perhaps to be used in another calculation)
Total thermal correction                  0.02432920 Eh      15.27 kcal/mol
Non-thermal (ZPE) correction              0.44858410 Eh     281.49 kcal/mol
-----------------------------------------------------------------------
Total correction                          0.47291330 Eh     296.76 kcal/mol


--------
ENTHALPY
--------

The enthalpy is H = U + kB*T
                kB is Boltzmann's constant
Total thermal energy              ...   -854.48550066 Eh 
Thermal Enthalpy correction       ...      0.00094421 Eh       0.59 kcal/mol
-----------------------------------------------------------------------
Total Enthalpy                    ...   -854.48455646 Eh


Note: Only C1 symmetry has been detected, increase convergence thresholds 
      if your molecule has a higher symmetry. Symmetry factor of 1.0 is   
      used for the rotational entropy correction. 
 

Note: Rotational entropy computed according to Herzberg 
Infrared and Raman Spectra, Chapter V,1, Van Nostrand Reinhold, 1945 
Point Group:  C1, Symmetry Number:   1  
Rotational constants in cm-1:     0.027168     0.002607     0.002482 

Vibrational entropy computed according to the QRRHO of S. Grimme
Chem.Eur.J. 2012 18 9955 using a reference frequency of 100.0 cm-1


-------
ENTROPY
-------

The entropy contributions are T*S = T*(S(el)+S(vib)+S(rot)+S(trans))
     S(el)   - electronic entropy
     S(vib)  - vibrational entropy
     S(rot)  - rotational entropy
     S(trans)- translational entropy
The entropies will be listed as multiplied by the temperature to get
units of energy

Electronic entropy                ...      0.00000000 Eh      0.00 kcal/mol
Vibrational entropy               ...      0.03833694 Eh     24.06 kcal/mol
Rotational entropy                ...      0.01685379 Eh     10.58 kcal/mol
Translational entropy             ...      0.02036176 Eh     12.78 kcal/mol
-----------------------------------------------------------------------
Final entropy term                ...      0.07555249 Eh     47.41 kcal/mol

In case the symmetry of your molecule has not been determined correctly
or in case you have a reason to use a different symmetry number we print 
out the resulting rotational entropy values for sn=1,12:

 non-linear molecules -----------------------------------
|  sn= 1 | S(rot)=       0.01685379 Eh     10.58 kcal/mol|
|  sn= 2 | S(rot)=       0.01619933 Eh     10.17 kcal/mol|
|  sn= 3 | S(rot)=       0.01581650 Eh      9.92 kcal/mol|
|  sn= 4 | S(rot)=       0.01554487 Eh      9.75 kcal/mol|
|  sn= 5 | S(rot)=       0.01533419 Eh      9.62 kcal/mol|
|  sn= 6 | S(rot)=       0.01516204 Eh      9.51 kcal/mol|
|  sn= 7 | S(rot)=       0.01501650 Eh      9.42 kcal/mol|
|  sn= 8 | S(rot)=       0.01489042 Eh      9.34 kcal/mol|
|  sn= 9 | S(rot)=       0.01477921 Eh      9.27 kcal/mol|
|  sn=10 | S(rot)=       0.01467973 Eh      9.21 kcal/mol|
|  sn=11 | S(rot)=       0.01458974 Eh      9.16 kcal/mol|
|  sn=12 | S(rot)=       0.01450759 Eh      9.10 kcal/mol|
 linear molecules ---------------------------------------
|  Dinfh | S(rot)=       0.01098977 Eh      6.90 kcal/mol|
|  Cinfv | S(rot)=       0.01164423 Eh      7.31 kcal/mol|
 --------------------------------------------------------


-------------------
GIBBS FREE ENERGY
-------------------

The Gibbs free energy is G = H - T*S

Total enthalpy                    ...   -854.48455646 Eh 
Total entropy correction          ...     -0.07555249 Eh    -47.41 kcal/mol
-----------------------------------------------------------------------
Final Gibbs free energy         ...   -854.56010894 Eh

For completeness - the Gibbs free energy minus the electronic energy
G-E(el)                           ...      0.39830502 Eh    249.94 kcal/mol


Maximum memory used throughout the entire PROP-calculation: 135.4 MB

--------------------------------
SUGGESTED CITATIONS FOR THIS RUN
--------------------------------

Below you find a list of papers that are relevant to this ORCA run
We neither can nor want to force you to cite these papers, but we appreciate if you do
You receive ORCA, which is the product of decades of hard work by many enthusiastic individuals, for free
The only thing we kindly ask in return is that you cite our papers,
We deeply appreciate it, if you show your appreciation for ORCA by not just citing the generic ORCA reference.

Please note that relegating all ORCA citations to the supporting information does *not* help us.
SI sections are not indexed - citations you put there will not count into any citation statistics
But we need these citations in order to attract the funding resources that allow us to do what we are doing

Therefore, if you are a happy ORCA user, please consider citing a few of the papers listed below in the main body of your paper

In addition to the list printed below, the program has created the file m1_00_Vitamin_A-GFN2_006-B97-3C-TZ.bibtex that contains the list in bibtex format
You can import this file easily into all common literature databanks and citation aid programs


List of essential papers. We consider these as the minimum necessary citations

  1. Neese,F.
     Software update: the ORCA program system, version 5.0
     WIRES Comput. Molec. Sci., 2022 12(1)e1606
     doi.org/10.1002/wcms.1606

List of papers to cite with high priority. The work reported in these papers was absolutely
necessary for this run to complete.
Our perspective: the developers of density functionals and basis sets usually get cited in chemistry papers
Good! But without the algorithms to do something with them, the functionals or basis sets would not do anything.
Hence, in our opinion, the algorithm design and method developments papers are equally worthy of getting cited

  1. Neese,F.
     An improvement of the resolution of the identity approximation for the formation of the Coulomb matrix
     J. Comp. Chem., 2003 24(14)1740-1747
     doi.org/10.1002/jcc.10318
  2. Bykov,D.; Petrenko,T.; Izsak,R.; Kossmann,S.; Becker,U.; Valeev,E.; Neese,F.
     Efficient implementation of the analytic second derivatives of Hartree-Fock and hybrid DFT energies: a detailed analysis of different approximations
     Molec. Phys., 2015 113 1961-1977
     doi.org/10.1080/00268976.2015.1025114
  3. Neese,F.
     The SHARK Integral Generation and Digestion System
     J. Comp. Chem., 2022  1-16
     doi.org/10.1002/jcc.26942
  4. Grimme,S.; Antony,J.; Ehrlich,S.; Krieg,H.
     A consistent and accurate ab initio parametrization of density functional dispersion correction (DFT-D) for the 94 elements H-Pu
     J. Chem. Phys., 2010 132 154104
     doi.org/10.1063/1.3382344
  5. Grimme,S.; Ehrlich,S.; Goerigk,L.
     Effect of the damping function in dispersion corrected density functional theory
     J. Comput. Chem., 2011 32(7)1456-1465
     doi.org/10.1002/jcc.21759

List of suggested additional citations. These are papers that are important in the 'surrounding' of 
of this run, or papers that preceded the highly important papers. If you like your results we are grateful for a citation.

  1. Neese,F.
     The ORCA program system
     WIRES Comput. Molec. Sci., 2012 2(1)73-78
     doi.org/10.1002/wcms.81
  2. Neese,F.
     Software update: the ORCA program system, version 4.0
     WIRES Comput. Molec. Sci., 2018 8(1)1-6
     doi.org/10.1002/wcms.1327
  3. Neese,F.; Wennmohs,F.; Becker,U.; Riplinger,C.
     The ORCA quantum chemistry program package
     J. Chem. Phys., 2020 152 Art. No. L224108
     doi.org/10.1063/5.0004608

List of optional additional citations

  1. Neese,F.
     Approximate second-order SCF convergence for spin unrestricted wavefunctions
     Chem. Phys. Lett., 2000 325(1-3)93-98
     doi.org/10.1016/s0009-2614(00)00662-x

Timings for individual modules:

Sum of individual times          ...      600.022 sec (=  10.000 min)
Startup calculation              ...       66.546 sec (=   1.109 min)  11.1 %
SCF iterations                   ...      130.968 sec (=   2.183 min)  21.8 %
Property integrals               ...      117.655 sec (=   1.961 min)  19.6 %
SCF Response                     ...      150.291 sec (=   2.505 min)  25.0 %
Property calculations            ...       53.028 sec (=   0.884 min)   8.8 %
SCF Gradient evaluation          ...       81.329 sec (=   1.355 min)  13.6 %
Geometry relaxation              ...        0.206 sec (=   0.003 min)   0.0 %
                             ****ORCA TERMINATED NORMALLY****
TOTAL RUN TIME: 0 days 0 hours 10 minutes 3 seconds 385 msec
