
                                 *****************
                                 * O   R   C   A *
                                 *****************

                                            #,                                       
                                            ###                                      
                                            ####                                     
                                            #####                                    
                                            ######                                   
                                           ########,                                 
                                     ,,################,,,,,                         
                               ,,#################################,,                 
                          ,,##########################################,,             
                       ,#########################################, ''#####,          
                    ,#############################################,,   '####,        
                  ,##################################################,,,,####,       
                ,###########''''           ''''###############################       
              ,#####''   ,,,,##########,,,,          '''####'''          '####       
            ,##' ,,,,###########################,,,                        '##       
           ' ,,###''''                  '''############,,,                           
         ,,##''                                '''############,,,,        ,,,,,,###''
      ,#''                                            '''#######################'''  
     '                                                          ''''####''''         
             ,#######,   #######,   ,#######,      ##                                
            ,#'     '#,  ##    ##  ,#'     '#,    #''#        ,####,   ,####,        
            ##       ##  ##   ,#'  ##            #'  '#       #'       #'  '#        
            ##       ##  #######   ##           ,######,      #####,   #    #        
            '#,     ,#'  ##    ##  '#,     ,#' ,#      #,     #,   #   #,  ,#        
             '#######'   ##     ##  '#######'  #'      '#     '####' # '####'        



                #########################################################
                #                        -***-                          #
                #          Department of theory and spectroscopy        #
                #                                                       #
                #                      Frank Neese                      #
                #                                                       #
                #     Directorship, Architecture, Infrastructure        #
                #                    SHARK, DRIVERS                     #
                #        Core code/Algorithms in most modules           #
                #                                                       #
                #        Max Planck Institute fuer Kohlenforschung      #
                #                Kaiser Wilhelm Platz 1                 #
                #                 D-45470 Muelheim/Ruhr                 #
                #                      Germany                          #
                #                                                       #
                #                  All rights reserved                  #
                #                        -***-                          #
                #########################################################


                         Program Version 6.0.1  -  RELEASE   -


 With contributions from (in alphabetic order):
[Max-Planck-Institut fuer Kohlenforschung]                               
  Daniel Aravena         : Magnetic Suceptibility                        
  Michael Atanasov       : Ab Initio Ligand Field Theory (pilot matlab implementation)
  Alexander A. Auer      : GIAO ZORA, VPT2 properties, NMR spectrum      
  Ute Becker             : All parallelization in ORCA, NUMFREQ, NUMCALC 
  Giovanni Bistoni       : ED, misc. LED, open-shell LED, HFLD           
  Martin Brehm           : Molecular dynamics                            
  Dmytro Bykov           : pre 5.0 version of the SCF Hessian            
  Marcos Casanova-Páez   : Triplet and SCS-CIS(D). UHF-(DLPNO)-IP/EA/STEOM-CCSD. UHF-CVS-IP/STEOM-CCSD   
  Vijay G. Chilkuri      : MRCI spin determinant printing, contributions to CSF-ICE 
  Pauline Colinet        : FMM embedding                                 
  Dipayan Datta          : RHF DLPNO-CCSD density                        
  Achintya Kumar Dutta   : EOM-CC, STEOM-CC                              
  Nicolas Foglia         : Exact transition moments, OPA infrastructure, MCD improvements    
  Dmitry Ganyushin       : Spin-Orbit,Spin-Spin,Magnetic field MRCI      
  Miquel Garcia-Rates    : C-PCM and meta-GGA Hessian, CCSD/C-PCM, Gaussian charge scheme 
  Tiago L. C. Gouveia    : GS-ROHF, GS-ROCIS                             
  Yang Guo               : DLPNO-NEVPT2, F12-NEVPT2, CIM, IAO-localization        
  Andreas Hansen         : Spin unrestricted coupled pair/coupled cluster methods 
  Ingolf Harden          : AUTO-CI MPn and infrastructure                
  Benjamin Helmich-Paris : MC-RPA, TRAH-(SCF,CASSCF), AVAS, COSX integrals, SCF dyn. polar. 
  Lee Huntington         : MR-EOM, pCC                                   
  Robert Izsak           : Overlap fitted RIJCOSX, COSX-SCS-MP3, EOM     
  Riya Kayal             : Wick's Theorem for AUTO-CI, AUTO-CI UHF-CCSDT 
  Emily Kempfer          : AUTO-CI, RHF CISDT and CCSDT                  
  Christian Kollmar      : KDIIS, OOCD, Brueckner-CCSD(T), CCSD density, CASPT2, CASPT2-K, improved NEVPT2 
  Axel Koslowski         : Symmetry handling                             
  Simone Kossmann        : meta-GGA functionals, TD-DFT gradient, OOMP2, (MP2 Hessian; deprecated post 5.0) 
  Lucas Lang             : DCDCAS                                        
  Marvin Lechner         : AUTO-CI (C++ implementation), FIC-MRCC        
  Spencer Leger          : CASSCF response                               
  Dagmar Lenk            : GEPOL surface, SMD, ORCA-2-JSON               
  Dimitrios Liakos       : Extrapolation schemes; Compound Job, initial MDCI parallelization 
  Dimitrios Manganas     : Further ROCIS development; embedding schemes. LFT, Crystal Embedding 
  Dimitrios Pantazis     : SARC Basis sets                               
  Anastasios Papadopoulos: AUTO-CI, single reference methods and gradients 
  Taras Petrenko         : pre 6.0 DFT Hessian and TD-DFT gradient, (ASA, deprecated), ECA, 1-Electron XAS/XES, NRVS 
  Peter Pinski           : DLPNO-MP2, DLPNO-MP2 Gradient                 
  Christoph Reimann      : Effective Core Potentials                     
  Marius Retegan         : Local ZFS, SOC                                
  Christoph Riplinger    : Optimizer, TS searches, QM/MM, DLPNO-CCSD(T), (RO)-DLPNO pert. Triples 
  Michael Roemelt        : Original ROCIS implementation                 
  Masaaki Saitow         : Open-shell DLPNO-CCSD energy and density      
  Barbara Sandhoefer     : DKH picture change effects                    
  Kantharuban Sivalingam : CASSCF convergence/infrastructure, NEVPT2 and variants, FIC-MRCI 
  Bernardo de Souza      : ESD, SOC TD-DFT                               
  Georgi L. Stoychev     : AutoAux, RI-MP2 NMR, DLPNO-MP2 response, X2C  
  Van Anh Tran           : RI-MP2 g-tensors                              
  Willem Van den Heuvel  : Paramagnetic NMR                              
  Zikuan Wang            : NOTCH, Electric field optimization            
  Frank Wennmohs         : Technical directorship and infrastructure     
  Hang Xu                : AUTO-CI-Response properties                   
                                                                         
[FACCTs GmbH]                                                            
  Markus Bursch, Miquel Garcia-Rates, Christoph Riplinger, Bernardo de Souza, Georgi L. Stoychev 
                                                                 
  APM, Basis sets (HGBS, AHGBS, def-TZVP (Ac-Lr), def2-XVPD (La-Lu)), CI-OPT, improved COSX, DLPNO-Multilevel,           
  DOCKER, DRACO, updates on ESD, GOAT, IRC, LR-CPCM, MBIS, meta-GGA TD-DFT gradient, ML-optimized integration grids, 
  MM, NACMEs, nearIR, NEB, NEB-TS, NL-DFT gradient (VV10), 2- and 3-layer-ONIOM, interface openCOSMO-RS, QMMM,   
  Crystal-QMMM, SF, symmetry and pop. for TD-DFT, r2SCAN hybrids, SOLVATOR                                   
                                                                         
[Other institutions]                                                     
  V. Asgeirsson          : NEB                                           
  Christoph Bannwarth    : sTDA-DFT, sTD-DFT, PBEh-3c, B97-3c, D3        
  Sebastian Ehlert       : rSCAN, r2SCAN, r2SCAN-3c, D4, dhf basis sets  
  Marvin Friede          : D4 for Fr, Ra, Ac-Lr                          
  Lars Goerigk           : TD-DFT with DH, B97 family of functionals     
  Stefan Grimme          : VdW corrections, initial TS optimization, DFT functionals, gCP, sTDA/sTD-DF 
  Waldemar Hujo          : DFT-NL                                        
  H. Jonsson             : NEB                                           
  Holger Kruse           : gCP                                           
  Marcel Mueller         : wB97X-3c, vDZP basis set                      
  Hagen Neugebauer       : wr2SCAN                                       
  Tobias Risthaus        : range-separated hybrid DFT                    
  Lukas Wittmann         : regularized MP2, r2SCAN double-hybrids, wr2SCAN        
                                                                         
We gratefully acknowledge several colleagues who have allowed us to      
interface, adapt or use parts of their codes:                            
  Ed Valeev, F. Pavosevic, A. Kumar             : LibInt (2-el integral package), F12 methods 
  Garnet Chan, S. Sharma, J. Yang, R. Olivares  : DMRG                   
  Ulf Ekstrom                                   : XCFun DFT Library      
  Mihaly Kallay                                 : mrcc  (arbitrary order and MRCC methods)
  Frank Weinhold                                : gennbo (NPA and NBO analysis)           
  Simon Mueller                                 : openCOSMO-RS                            
  Christopher J. Cramer and Donald G. Truhlar   : smd solvation model                     
  S Lehtola, MJT Oliveira, MAL Marques          : LibXC Library                           
  Liviu Ungur et al                             : ANISO software                          


 Your calculation uses the libint2 library for the computation of 2-el integrals
 For citations please refer to: http://libint.valeyev.net

 Your ORCA version has been built with support for libXC version: 6.2.2
 For citations please refer to: https://libxc.gitlab.io

 This ORCA versions uses:
   CBLAS   interface :  Fast vector & matrix operations
   LAPACKE interface :  Fast linear algebra routines
   SCALAPACK package :  Parallel linear algebra routines
   Shared memory     :  Shared parallel matrices
   BLAS/LAPACK       :  OpenBLAS 0.3.27  USE64BITINT DYNAMIC_ARCH NO_AFFINITY Zen SINGLE_THREADED
        Core in use  :  Zen
   Copyright (c) 2011-2014, The OpenBLAS Project


NOTE: MaxCore=6000 MB was set to SCF,MP2,MDCI,CIPSI,MRCI and CIS
      => If you want to overwrite this, your respective input block should be placed after the MaxCore statement
Your calculation utilizes the atom-pairwise dispersion correction
with the Becke-Johnson damping scheme (D3BJ)


Your calculation employs the composite approach B97-3c by Grimme and coworkers.
For the correct reference, please check the publication list of the Grimme group:
http://www.thch.uni-bonn.de/tc/index.php?section=publikationen&subsection=grimme#2017
   

XCFun DFT library Copyright 2009-2010 Ulf Ekstrom and contributors.
See http://admol.org/xcfun for more information.
This is free software; see the source code for copying conditions.
There is ABSOLUTELY NO WARRANTY; not even for MERCHANTABILITY or FITNESS FOR A PARTICULAR PURPOSE.
For details see the documentation.
Scientific users of this library should cite U. Ekstrom, L. Visscher, R. Bast, A. J. Thorvaldsen and K. Ruud;
J.Chem.Theor.Comp. 2010, DOI: 10.1021/ct100117s
XCFun Version 0.99 

================================================================================

----- Orbital basis set information -----
Your calculation utilizes the basis: def2-mTZVP
----- AuxJ basis set information -----
Your calculation utilizes the basis: def2-mTZVP/J
================================================================================
                                        WARNINGS
                       Please study these warnings very carefully!
================================================================================


WARNING: Geometry Optimization
  ===> : Switching off AutoStart
         For restart on a previous wavefunction, please use MOREAD

================================================================================
                                       INPUT FILE
================================================================================
NAME = m1_00_Vitamin_A-GFN2_050-B97-3C-TZ.inp
|  1> %pal nprocs 16 end
|  2> %MaxCore 6000
|  3> # put your comments here
|  4> ! B97-3C  OPT  FREQ DEFGRID3 NOTRAH
|  5> %scf MaxIter 800 end
|  6> %output
|  7> Print [P_Hirshfeld] 1
|  8> end
|  9> %geom
| 10> MaxIter 3000
| 11>  TolE 1e-6 #TolE 5e-6 Energy change (a.u.)
| 12>  TolRMSG 3e-5 #TolRMSG 1e-4 RMS gradient (a.u.)
| 13>  TolMaxG 1e-4 #TolMaxG 3e-3 Max. element of gradient (a.u.)
| 14>  TolRMSD 2e-3 #TolRMSD 2e-3 RMS displacement (a.u.)
| 15>  TolMaxD 4e-3 #TolMaxD 4e-3 Max. displacement (a.u.)
| 16> end
| 17> * xyz 0 1
| 18>  O 8.61069871572419 1.06553951333822 1.34242960755045
| 19>  C -2.69000803510422 5.35833195638055 1.07313505114712
| 20>  C -4.13752873836871 5.26786580814901 0.57215389520473
| 21>  C -5.02262878691060 4.49683369562596 1.53818709118783
| 22>  C -2.19833643744471 3.99514941657643 1.54758362452361
| 23>  C -4.51736377503207 3.06457909939503 1.63965685161181
| 24>  C -3.02696795313367 2.98249499364178 1.83298787504448
| 25>  C -2.59339236993405 6.36813347358567 2.22603004891111
| 26>  C -1.81713806382648 5.84589879533176 -0.09143157235137
| 27>  C -0.74842494436401 3.90177328384965 1.70260532341343
| 28>  C -2.57005872924141 1.66016243046225 2.37885094549625
| 29>  C 0.01278010328291 2.91246787265871 1.20897611246490
| 30>  C 1.44641759727470 2.80214544839365 1.32890386628443
| 31>  C 2.16468029104875 3.85494380186903 2.11915565603164
| 32>  C 2.06852143899442 1.75819981759858 0.72460253484941
| 33>  C 3.46204314890483 1.45646215863792 0.70778280107455
| 34>  C 3.96262361837546 0.38339095940039 0.06119345402419
| 35>  C 5.34775522627248 -0.02771061632623 -0.03121457465208
| 36>  C 5.58403233320384 -1.22805071379458 -0.90604524518720
| 37>  C 6.34943071134312 0.60557854809800 0.59559582891572
| 38>  C 7.80265909659788 0.23820265180668 0.53773164893650
| 39>  H -4.14642257509180 4.75617276532995 -0.39328464150538
| 40>  H -4.52964317860699 6.27570357107125 0.41881386238448
| 41>  H -6.05777760285671 4.50430930232687 1.18978306457309
| 42>  H -5.00123082027282 4.96676069188783 2.52233682265020
| 43>  H -4.76957935326748 2.52454600338788 0.71951735769980
| 44>  H -5.02196048748895 2.54701075122398 2.45963972202664
| 45>  H -3.13752190346672 6.01615310706309 3.09870283975443
| 46>  H -1.55844764965279 6.52809088966860 2.51714120617474
| 47>  H -3.00842606072751 7.32655802402686 1.92003628186923
| 48>  H -2.21441079897444 6.77817785497378 -0.48870494341978
| 49>  H -0.79202115996224 6.01832257303025 0.22535726417768
| 50>  H -1.80443565885076 5.10758086162749 -0.89057397047364
| 51>  H -0.28005642581910 4.73306891558096 2.21125024078056
| 52>  H -3.22358529742565 1.35091080676520 3.19440587359877
| 53>  H -1.54927744322100 1.70527981584344 2.74661446007067
| 54>  H -2.62559875447130 0.89096361810435 1.60779907210297
| 55>  H -0.46815197679202 2.12520054783096 0.64330842681483
| 56>  H 3.22672514981784 3.65003954640423 2.19696358367413
| 57>  H 2.03971901523399 4.82832380219389 1.64478277522325
| 58>  H 1.75246773239962 3.91382636583226 3.12598563938363
| 59>  H 1.44431467325919 1.05783113455433 0.18090015786652
| 60>  H 4.13188079639275 2.12140652120710 1.23138739425156
| 61>  H 3.26373346355721 -0.25576364792283 -0.46553896877027
| 62>  H 4.88794009458028 -2.02438148911727 -0.64614831920077
| 63>  H 6.59709749843435 -1.60589852197774 -0.81463154729086
| 64>  H 5.41015421100720 -0.96149945307672 -1.94852048755334
| 65>  H 6.14099346801667 1.47399438208841 1.20413600529663
| 66>  H 8.19224930452568 0.36062047855871 -0.47887936620830
| 67>  H 7.94252136281781 -0.81753078443319 0.82702971233298
| 68>  H 8.27057292924419 1.04553917127000 2.24379165723444
| 69> *
| 70> 
| 71> 
| 72> 
| 73> 
| 74>                          ****END OF INPUT****
================================================================================

                       *****************************
                       * Geometry Optimization Run *
                       *****************************

Geometry optimization settings:
Update method            Update   .... BFGS
Choice of coordinates    CoordSys .... (2022) Redundant Internals
Initial Hessian          InHess   .... Almloef's Model
Max. no of cycles        MaxIter  .... 3000

Convergence Tolerances:
Energy Change            TolE     ....  1.0000e-06 Eh
Max. Gradient            TolMAXG  ....  1.0000e-04 Eh/bohr
RMS Gradient             TolRMSG  ....  3.0000e-05 Eh/bohr
Max. Displacement        TolMAXD  ....  4.0000e-03 bohr
RMS Displacement         TolRMSD  ....  2.0000e-03 bohr
Strict Convergence                .... False

------------------------------------------------------------------------------
                        ORCA OPTIMIZATION COORDINATE SETUP
------------------------------------------------------------------------------

The optimization will be done in redundant internal coordinates (2022)
Making redundant internal coordinates   ...  (2022 redundants) done
Evaluating the initial hessian          ...  (Almloef) done
Evaluating the coordinates              ...  done
Calculating the B-matrix                .... done
Calculating the G-matrix                .... done
Diagonalizing the G-matrix              .... done
Small eigenvalue found = 9.427e-04
Small eigenvalue found = 3.106e-03
Small eigenvalue found = 5.085e-03
Small eigenvalue found = 6.088e-03
Small eigenvalue found = 1.161e-02
Small eigenvalue found = 1.678e-02
Small eigenvalue found = 2.402e-02
Small eigenvalue found = 2.664e-02
The first mode is                       ....   94
The number of degrees of freedom        ....  147

    -----------------------------------------------------------------
                    Redundant Internal Coordinates


    -----------------------------------------------------------------
         Definition                    Initial Value    Approx d2E/dq
    -----------------------------------------------------------------
      1. B(C   2,C   1)                  1.5344         0.367541   
      2. B(C   3,C   2)                  1.5202         0.387220   
      3. B(C   4,C   1)                  1.5248         0.380737   
      4. B(C   5,C   3)                  1.5222         0.384504   
      5. B(C   6,C   5)                  1.5051         0.409324   
      6. B(C   6,C   4)                  1.3392         0.752884   
      7. B(C   7,C   1)                  1.5356         0.365910   
      8. B(C   8,C   1)                  1.5349         0.366945   
      9. B(C   9,C   4)                  1.4612         0.481066   
     10. B(C  10,C   6)                  1.5018         0.414406   
     11. B(C  11,C   9)                  1.3423         0.744399   
     12. B(C  12,C  11)                  1.4429         0.514505   
     13. B(C  13,C  12)                  1.4996         0.417722   
     14. B(C  14,C  12)                  1.3572         0.704782   
     15. B(C  15,C  14)                  1.4259         0.547570   
     16. B(C  16,C  15)                  1.3491         0.726024   
     17. B(C  17,C  16)                  1.4478         0.505263   
     18. B(C  18,C  17)                  1.5040         0.411038   
     19. B(C  19,C  17)                  1.3406         0.749029   
     20. B(C  20,C  19)                  1.5001         0.417005   
     21. B(C  20,O   0)                  1.4089         0.522093   
     22. B(H  21,C   2)                  1.0927         0.356554   
     23. B(H  22,C   2)                  1.0922         0.357140   
     24. B(H  23,C   3)                  1.0922         0.357157   
     25. B(H  24,C   3)                  1.0908         0.359046   
     26. B(H  25,C   5)                  1.0963         0.351843   
     27. B(H  26,C   5)                  1.0931         0.356023   
     28. B(H  27,C   7)                  1.0870         0.364118   
     29. B(H  28,C   7)                  1.0869         0.364168   
     30. B(H  29,C   7)                  1.0883         0.362316   
     31. B(H  30,C   8)                  1.0885         0.362112   
     32. B(H  31,C   8)                  1.0867         0.364472   
     33. B(H  32,C   8)                  1.0881         0.362658   
     34. B(H  33,C   9)                  1.0813         0.371838   
     35. B(H  34,C  10)                  1.0899         0.360244   
     36. B(H  35,C  10)                  1.0859         0.365502   
     37. B(H  36,C  10)                  1.0905         0.359389   
     38. B(H  37,C  11)                  1.0822         0.370625   
     39. B(H  38,C  13)                  1.0844         0.367550   
     40. B(H  39,C  13)                  1.0900         0.360092   
     41. B(H  40,C  13)                  1.0895         0.360712   
     42. B(H  41,C  14)                  1.0843         0.367685   
     43. B(H  42,C  15)                  1.0793         0.374469   
     44. B(H  43,C  16)                  1.0837         0.368527   
     45. B(H  44,C  18)                  1.0891         0.361235   
     46. B(H  45,C  18)                  1.0851         0.366650   
     47. B(H  46,C  18)                  1.0900         0.360138   
     48. B(H  47,C  19)                  1.0807         0.372615   
     49. B(H  48,C  20)                  1.0956         0.352812   
     50. B(H  49,C  20)                  1.1036         0.342611   
     51. B(H  50,O   0)                  0.9636         0.513111   
     52. A(C  20,O   0,H  50)          108.6410         0.358580   
     53. A(C   2,C   1,C   7)          110.0742         0.361063   
     54. A(C   2,C   1,C   4)          110.6746         0.363520   
     55. A(C   7,C   1,C   8)          108.9633         0.360963   
     56. A(C   4,C   1,C   7)          109.5107         0.363243   
     57. A(C   4,C   1,C   8)          109.6755         0.363419   
     58. A(C   2,C   1,C   8)          107.9078         0.361237   
     59. A(C   1,C   2,H  21)          108.8903         0.322929   
     60. A(H  21,C   2,H  22)          107.7663         0.290012   
     61. A(C   1,C   2,H  22)          109.2748         0.323016   
     62. A(C   1,C   2,C   3)          111.8185         0.364571   
     63. A(C   3,C   2,H  22)          110.3762         0.325794   
     64. A(C   3,C   2,H  21)          108.6146         0.325706   
     65. A(C   2,C   3,C   5)          109.0459         0.367399   
     66. A(C   5,C   3,H  23)          110.0169         0.325420   
     67. A(H  23,C   3,H  24)          107.6643         0.290331   
     68. A(C   5,C   3,H  24)          109.7984         0.325703   
     69. A(C   2,C   3,H  24)          110.0843         0.326080   
     70. A(C   2,C   3,H  23)          110.2193         0.325797   
     71. A(C   1,C   4,C   9)          114.2113         0.380764   
     72. A(C   6,C   4,C   9)          122.8907         0.429448   
     73. A(C   1,C   4,C   6)          122.8735         0.411894   
     74. A(H  25,C   5,H  26)          106.8678         0.289266   
     75. A(C   3,C   5,H  25)          109.3406         0.324619   
     76. A(C   6,C   5,H  26)          109.5680         0.328619   
     77. A(C   3,C   5,H  26)          110.0170         0.325250   
     78. A(C   6,C   5,H  25)          107.9839         0.327979   
     79. A(C   3,C   5,C   6)          112.8657         0.370920   
     80. A(C   4,C   6,C   5)          122.9611         0.417229   
     81. A(C   5,C   6,C  10)          113.3271         0.375739   
     82. A(C   4,C   6,C  10)          123.7115         0.418147   
     83. A(H  28,C   7,H  29)          107.9876         0.291634   
     84. A(H  27,C   7,H  29)          108.6624         0.291628   
     85. A(H  27,C   7,H  28)          108.0154         0.291862   
     86. A(C   1,C   7,H  28)          110.9620         0.323814   
     87. A(C   1,C   7,H  27)          110.9965         0.323806   
     88. A(C   1,C   7,H  29)          110.1214         0.323543   
     89. A(H  30,C   8,H  32)          108.5044         0.291418   
     90. A(C   1,C   8,H  32)          110.3864         0.323743   
     91. A(H  30,C   8,H  31)          108.3481         0.291647   
     92. A(C   1,C   8,H  31)          111.4493         0.324008   
     93. A(C   1,C   8,H  30)          109.9644         0.323663   
     94. A(H  31,C   8,H  32)          108.1046         0.291716   
     95. A(C  11,C   9,H  33)          119.6023         0.366065   
     96. A(C   4,C   9,H  33)          115.5061         0.339996   
     97. A(C   4,C   9,C  11)          124.8059         0.428576   
     98. A(H  34,C  10,H  36)          107.3612         0.290767   
     99. A(C   6,C  10,H  36)          110.4002         0.329801   
    100. A(H  34,C  10,H  35)          108.7850         0.291539   
    101. A(C   6,C  10,H  35)          111.8701         0.330722   
    102. A(C   6,C  10,H  34)          109.8402         0.329931   
    103. A(H  35,C  10,H  36)          108.4587         0.291430   
    104. A(C   9,C  11,C  12)          126.1030         0.433781   
    105. A(C  12,C  11,H  37)          115.4294         0.343655   
    106. A(C   9,C  11,H  37)          118.4492         0.365860   
    107. A(C  13,C  12,C  14)          123.7178         0.413850   
    108. A(C  11,C  12,C  14)          118.5054         0.429539   
    109. A(C  11,C  12,C  13)          117.7768         0.391518   
    110. A(H  39,C  13,H  40)          108.0912         0.290916   
    111. A(H  38,C  13,H  40)          108.3268         0.291855   
    112. A(C  12,C  13,H  40)          110.1026         0.330437   
    113. A(H  38,C  13,H  39)          108.1941         0.291776   
    114. A(C  12,C  13,H  39)          110.0406         0.330343   
    115. A(C  12,C  13,H  38)          111.9775         0.331465   
    116. A(C  12,C  14,C  15)          128.0229         0.434374   
    117. A(C  15,C  14,H  41)          114.8341         0.346805   
    118. A(C  12,C  14,H  41)          117.1429         0.361962   
    119. A(C  14,C  15,C  16)          122.4508         0.436703   
    120. A(C  16,C  15,H  42)          119.4876         0.364942   
    121. A(C  14,C  15,H  42)          118.0609         0.347874   
    122. A(C  15,C  16,C  17)          127.6920         0.430432   
    123. A(C  17,C  16,H  43)          114.7400         0.342287   
    124. A(C  15,C  16,H  43)          117.5657         0.363945   
    125. A(C  18,C  17,C  19)          122.1130         0.417158   
    126. A(C  16,C  17,C  19)          123.4253         0.432851   
    127. A(C  16,C  17,C  18)          114.4594         0.389181   
    128. A(H  45,C  18,H  46)          108.3407         0.291669   
    129. A(H  44,C  18,H  46)          107.7626         0.290988   
    130. A(C  17,C  18,H  46)          109.6389         0.329470   
    131. A(H  44,C  18,H  45)          108.7834         0.291809   
    132. A(C  17,C  18,H  45)          112.0604         0.330448   
    133. A(C  17,C  18,H  44)          110.1409         0.329636   
    134. A(C  17,C  19,C  20)          126.1650         0.418230   
    135. A(C  20,C  19,H  47)          113.9144         0.332123   
    136. A(C  17,C  19,H  47)          119.9178         0.366585   
    137. A(O   0,C  20,C  19)          112.9406         0.389907   
    138. A(H  48,C  20,H  49)          107.7634         0.287656   
    139. A(C  19,C  20,H  49)          110.3017         0.327547   
    140. A(O   0,C  20,H  49)          109.8381         0.337930   
    141. A(C  19,C  20,H  48)          110.6668         0.329136   
    142. A(O   0,C  20,H  48)          105.0956         0.339588   
    143. D(C   3,C   2,C   1,C   7)    -74.3993         0.010808   
    144. D(C   3,C   2,C   1,C   8)    166.8052         0.010808   
    145. D(H  21,C   2,C   1,C   8)     46.7789         0.010808   
    146. D(C   3,C   2,C   1,C   4)     46.7964         0.010808   
    147. D(H  21,C   2,C   1,C   7)    165.5744         0.010808   
    148. D(H  21,C   2,C   1,C   4)    -73.2299         0.010808   
    149. D(C   5,C   3,C   2,H  22)    175.2994         0.011928   
    150. D(H  23,C   3,C   2,H  22)     54.4321         0.011928   
    151. D(C   5,C   3,C   2,C   1)    -62.8300         0.011928   
    152. D(H  23,C   3,C   2,C   1)    176.3027         0.011928   
    153. D(H  23,C   3,C   2,H  21)    -63.5097         0.011928   
    154. D(C   5,C   3,C   2,H  21)     57.3576         0.011928   
    155. D(C   6,C   4,C   1,C   8)   -136.2224         0.010814   
    156. D(C   6,C   4,C   1,C   7)    104.2506         0.010814   
    157. D(C   6,C   4,C   1,C   2)    -17.2778         0.010814   
    158. D(C   9,C   4,C   1,C   2)    164.4764         0.010814   
    159. D(C   9,C   4,C   1,C   7)    -73.9952         0.010814   
    160. D(H  25,C   5,C   3,C   2)    -73.2105         0.011769   
    161. D(H  25,C   5,C   3,H  23)     47.7805         0.011769   
    162. D(C   6,C   5,C   3,H  24)    -73.6925         0.011769   
    163. D(C   6,C   5,C   3,C   2)     46.9973         0.011769   
    164. D(H  25,C   5,C   3,H  24)    166.0997         0.011769   
    165. D(C   6,C   5,C   3,H  23)    167.9884         0.011769   
    166. D(C   4,C   6,C   5,H  26)   -141.8001         0.012411   
    167. D(C   4,C   6,C   5,H  25)    102.1501         0.012411   
    168. D(C   4,C   6,C   5,C   3)    -18.8327         0.012411   
    169. D(C  10,C   6,C   4,C   9)      1.8732         0.040454   
    170. D(C  10,C   6,C   4,C   1)   -176.2215         0.040454   
    171. D(C   5,C   6,C   4,C   9)   -178.3415         0.040454   
    172. D(C  10,C   6,C   5,C   3)    160.9729         0.012411   
    173. D(C   5,C   6,C   4,C   1)      3.5639         0.040454   
    174. D(C  10,C   6,C   5,H  25)    -78.0443         0.012411   
    175. D(H  28,C   7,C   1,C   8)    -55.4161         0.010718   
    176. D(H  28,C   7,C   1,C   4)     64.5478         0.010718   
    177. D(H  28,C   7,C   1,C   2)   -173.5628         0.010718   
    178. D(H  27,C   7,C   1,C   8)   -175.5339         0.010718   
    179. D(H  27,C   7,C   1,C   4)    -55.5700         0.010718   
    180. D(H  27,C   7,C   1,C   2)     66.3194         0.010718   
    181. D(H  31,C   8,C   1,C   7)     55.2783         0.010775   
    182. D(H  31,C   8,C   1,C   4)    -64.5836         0.010775   
    183. D(H  31,C   8,C   1,C   2)    174.7800         0.010775   
    184. D(H  30,C   8,C   1,C   7)    -64.8913         0.010775   
    185. D(H  30,C   8,C   1,C   4)    175.2468         0.010775   
    186. D(H  30,C   8,C   1,C   2)     54.6104         0.010775   
    187. D(H  33,C   9,C   4,C   6)   -132.8345         0.015756   
    188. D(H  33,C   9,C   4,C   1)     45.4110         0.015756   
    189. D(C  11,C   9,C   4,C   6)     50.5594         0.015756   
    190. D(C  11,C   9,C   4,C   1)   -131.1951         0.015756   
    191. D(H  36,C  10,C   6,C   4)   -106.4441         0.012709   
    192. D(H  35,C  10,C   6,C   5)   -165.3653         0.012709   
    193. D(H  35,C  10,C   6,C   4)     14.4386         0.012709   
    194. D(H  34,C  10,C   6,C   5)    -44.4537         0.012709   
    195. D(H  34,C  10,C   6,C   4)    135.3502         0.012709   
    196. D(H  37,C  11,C   9,H  33)   -175.7701         0.039461   
    197. D(H  37,C  11,C   9,C   4)      0.7068         0.039461   
    198. D(C  12,C  11,C   9,H  33)      2.5932         0.039461   
    199. D(C  12,C  11,C   9,C   4)    179.0701         0.039461   
    200. D(C  14,C  12,C  11,H  37)      0.8613         0.018046   
    201. D(C  14,C  12,C  11,C   9)   -177.5452         0.018046   
    202. D(C  13,C  12,C  11,H  37)   -179.1378         0.018046   
    203. D(C  13,C  12,C  11,C   9)      2.4557         0.018046   
    204. D(H  38,C  13,C  12,C  14)     -3.3166         0.012907   
    205. D(H  38,C  13,C  12,C  11)    176.6824         0.012907   
    206. D(H  40,C  13,C  12,C  11)     56.0997         0.012907   
    207. D(H  39,C  13,C  12,C  14)    117.0558         0.012907   
    208. D(H  39,C  13,C  12,C  11)    -62.9452         0.012907   
    209. D(H  41,C  14,C  12,C  13)    179.9172         0.035024   
    210. D(H  41,C  14,C  12,C  11)     -0.0818         0.035024   
    211. D(C  15,C  14,C  12,C  13)     -0.2223         0.035024   
    212. D(C  15,C  14,C  12,C  11)    179.7787         0.035024   
    213. D(H  42,C  15,C  14,H  41)    179.8655         0.020505   
    214. D(H  42,C  15,C  14,C  12)      0.0023         0.020505   
    215. D(C  16,C  15,C  14,H  41)      0.1713         0.020505   
    216. D(C  16,C  15,C  14,C  12)   -179.6919         0.020505   
    217. D(H  43,C  16,C  15,H  42)   -179.1819         0.037363   
    218. D(H  43,C  16,C  15,C  14)      0.5081         0.037363   
    219. D(C  17,C  16,C  15,H  42)      0.2327         0.037363   
    220. D(C  17,C  16,C  15,C  14)    179.9227         0.037363   
    221. D(C  19,C  17,C  16,H  43)   -177.3279         0.017393   
    222. D(C  19,C  17,C  16,C  15)      3.2434         0.017393   
    223. D(C  18,C  17,C  16,H  43)      3.2259         0.017393   
    224. D(C  18,C  17,C  16,C  15)   -176.2028         0.017393   
    225. D(H  46,C  18,C  17,C  16)     69.5045         0.012511   
    226. D(H  45,C  18,C  17,C  19)     10.3887         0.012511   
    227. D(H  45,C  18,C  17,C  16)   -170.1570         0.012511   
    228. D(H  44,C  18,C  17,C  19)    131.6328         0.012511   
    229. D(H  44,C  18,C  17,C  16)    -48.9129         0.012511   
    230. D(H  47,C  19,C  17,C  18)    179.0859         0.040001   
    231. D(H  47,C  19,C  17,C  16)     -0.3189         0.040001   
    232. D(C  20,C  19,C  17,C  18)     -0.2725         0.040001   
    233. D(C  20,C  19,C  17,C  16)   -179.6774         0.040001   
    234. D(H  49,C  20,C  19,C  17)    -54.5273         0.012864   
    235. D(H  48,C  20,C  19,H  47)   -114.7614         0.012864   
    236. D(H  48,C  20,C  19,C  17)     64.6303         0.012864   
    237. D(O   0,C  20,C  19,H  47)      2.7484         0.012864   
    238. D(O   0,C  20,C  19,C  17)   -177.8599         0.012864   
    239. D(H  49,C  20,O   0,H  50)    -68.3516         0.021618   
    240. D(H  48,C  20,O   0,H  50)    175.9749         0.021618   
    241. D(C  19,C  20,O   0,H  50)     55.2373         0.021618   
    -----------------------------------------------------------------

Number of atoms                         .... 51
Number of degrees of freedom            .... 241


         *************************************************************
         *                GEOMETRY OPTIMIZATION CYCLE   1            *
         *************************************************************
---------------------------------
CARTESIAN COORDINATES (ANGSTROEM)
---------------------------------
  O      8.610699    1.065540    1.342430
  C     -2.690008    5.358332    1.073135
  C     -4.137529    5.267866    0.572154
  C     -5.022629    4.496834    1.538187
  C     -2.198336    3.995149    1.547584
  C     -4.517364    3.064579    1.639657
  C     -3.026968    2.982495    1.832988
  C     -2.593392    6.368133    2.226030
  C     -1.817138    5.845899   -0.091432
  C     -0.748425    3.901773    1.702605
  C     -2.570059    1.660162    2.378851
  C      0.012780    2.912468    1.208976
  C      1.446418    2.802145    1.328904
  C      2.164680    3.854944    2.119156
  C      2.068521    1.758200    0.724603
  C      3.462043    1.456462    0.707783
  C      3.962624    0.383391    0.061193
  C      5.347755   -0.027711   -0.031215
  C      5.584032   -1.228051   -0.906045
  C      6.349431    0.605579    0.595596
  C      7.802659    0.238203    0.537732
  H     -4.146423    4.756173   -0.393285
  H     -4.529643    6.275704    0.418814
  H     -6.057778    4.504309    1.189783
  H     -5.001231    4.966761    2.522337
  H     -4.769579    2.524546    0.719517
  H     -5.021960    2.547011    2.459640
  H     -3.137522    6.016153    3.098703
  H     -1.558448    6.528091    2.517141
  H     -3.008426    7.326558    1.920036
  H     -2.214411    6.778178   -0.488705
  H     -0.792021    6.018323    0.225357
  H     -1.804436    5.107581   -0.890574
  H     -0.280056    4.733069    2.211250
  H     -3.223585    1.350911    3.194406
  H     -1.549277    1.705280    2.746614
  H     -2.625599    0.890964    1.607799
  H     -0.468152    2.125201    0.643308
  H      3.226725    3.650040    2.196964
  H      2.039719    4.828324    1.644783
  H      1.752468    3.913826    3.125986
  H      1.444315    1.057831    0.180900
  H      4.131881    2.121407    1.231387
  H      3.263733   -0.255764   -0.465539
  H      4.887940   -2.024381   -0.646148
  H      6.597097   -1.605899   -0.814632
  H      5.410154   -0.961499   -1.948520
  H      6.140993    1.473994    1.204136
  H      8.192249    0.360620   -0.478879
  H      7.942521   -0.817531    0.827030
  H      8.270573    1.045539    2.243792

----------------------------
CARTESIAN COORDINATES (A.U.)
----------------------------
  NO LB      ZA    FRAG     MASS         X           Y           Z
   0 O     8.0000    0    15.999   16.271862    2.013578    2.536824
   1 C     6.0000    0    12.011   -5.083378   10.125780    2.027931
   2 C     6.0000    0    12.011   -7.818796    9.954824    1.081214
   3 C     6.0000    0    12.011   -9.491393    8.497784    2.906752
   4 C     6.0000    0    12.011   -4.154254    7.549738    2.924509
   5 C     6.0000    0    12.011   -8.536580    5.791215    3.098502
   6 C     6.0000    0    12.011   -5.720140    5.636099    3.463845
   7 C     6.0000    0    12.011   -4.900801   12.034028    4.206587
   8 C     6.0000    0    12.011   -3.433893   11.047148   -0.172781
   9 C     6.0000    0    12.011   -1.414318    7.373283    3.217458
  10 C     6.0000    0    12.011   -4.856707    3.137252    4.495377
  11 C     6.0000    0    12.011    0.024151    5.503767    2.284634
  12 C     6.0000    0    12.011    2.733333    5.295287    2.511264
  13 C     6.0000    0    12.011    4.090653    7.284788    4.004624
  14 C     6.0000    0    12.011    3.908939    3.322516    1.369300
  15 C     6.0000    0    12.011    6.542313    2.752315    1.337516
  16 C     6.0000    0    12.011    7.488273    0.724504    0.115639
  17 C     6.0000    0    12.011   10.105793   -0.052365   -0.058987
  18 C     6.0000    0    12.011   10.552292   -2.320680   -1.712177
  19 C     6.0000    0    12.011   11.998685    1.144378    1.125513
  20 C     6.0000    0    12.011   14.744889    0.450138    1.016166
  21 H     1.0000    0     1.008   -7.835603    8.987864   -0.743200
  22 H     1.0000    0     1.008   -8.559785   11.859361    0.791444
  23 H     1.0000    0     1.008  -11.447541    8.511911    2.248364
  24 H     1.0000    0     1.008   -9.450957    9.385817    4.766526
  25 H     1.0000    0     1.008   -9.013199    4.770701    1.359691
  26 H     1.0000    0     1.008   -9.490130    4.813153    4.648045
  27 H     1.0000    0     1.008   -5.929057   11.368882    5.855700
  28 H     1.0000    0     1.008   -2.945039   12.336304    4.756708
  29 H     1.0000    0     1.008   -5.685101   13.845188    3.628343
  30 H     1.0000    0     1.008   -4.184630   12.808900   -0.923519
  31 H     1.0000    0     1.008   -1.496703   11.372981    0.425864
  32 H     1.0000    0     1.008   -3.409889    9.651929   -1.682941
  33 H     1.0000    0     1.008   -0.529230    8.944204    4.178657
  34 H     1.0000    0     1.008   -6.091693    2.552851    6.036552
  35 H     1.0000    0     1.008   -2.927710    3.222512    5.190349
  36 H     1.0000    0     1.008   -4.961663    1.683677    3.038300
  37 H     1.0000    0     1.008   -0.884679    4.016047    1.215677
  38 H     1.0000    0     1.008    6.097627    6.897575    4.151659
  39 H     1.0000    0     1.008    3.854510    9.124210    3.108189
  40 H     1.0000    0     1.008    3.311684    7.396060    5.907257
  41 H     1.0000    0     1.008    2.729359    1.999011    0.341852
  42 H     1.0000    0     1.008    7.808123    4.008877    2.326985
  43 H     1.0000    0     1.008    6.167562   -0.483323   -0.879741
  44 H     1.0000    0     1.008    9.236868   -3.825527   -1.221043
  45 H     1.0000    0     1.008   12.466708   -3.034708   -1.539431
  46 H     1.0000    0     1.008   10.223710   -1.816971   -3.682170
  47 H     1.0000    0     1.008   11.604796    2.785446    2.275487
  48 H     1.0000    0     1.008   15.481108    0.681474   -0.904951
  49 H     1.0000    0     1.008   15.009190   -1.544909    1.562860
  50 H     1.0000    0     1.008   15.629118    1.975783    4.240152

--------------------------------
INTERNAL COORDINATES (ANGSTROEM)
--------------------------------
 O      0   0   0     0.000000000000     0.00000000     0.00000000
 C      1   0   0    12.091590448960     0.00000000     0.00000000
 C      2   1   0     1.534432282300   150.22662453     0.00000000
 C      3   2   1     1.520234439227   111.81851787    93.39655913
 C      2   1   3     1.524830825223    51.26865605    60.62416799
 C      4   3   2     1.522150476442   109.04594662   297.16995121
 C      5   2   1     1.339236631555   122.87348102   190.27119764
 C      2   1   5     1.535643372263    99.08699102   107.77587997
 C      2   1   5     1.534874206497    66.30797066   214.58594253
 C      5   2   1     1.461161923627   114.21128291    12.02538057
 C      7   5   2     1.501764275180   123.71147974   183.77850012
 C     10   5   2     1.342321913356   124.80588271   228.80488051
 C     12  10   5     1.442868728475   126.10302691   179.07006434
 C     13  12  10     1.499594465696   117.77680359     2.45572443
 C     13  12  10     1.357208815589   118.50538807   182.45477546
 C     15  13  12     1.425914188958   128.02292344   179.77869960
 C     16  15  13     1.349125786859   122.45084721   180.30813493
 C     17  16  15     1.447802928759   127.69202141   179.92273148
 C     18  17  16     1.503985346657   114.45935152   183.79720587
 C     18  17  16     1.340634262276   123.42528397     3.24339387
 C      1   2   3     1.408883640733    70.10733492   358.61091198
 H      3   2   1     1.092694119398   108.89026183   333.37024796
 H      3   2   1     1.092247158971   109.27478252   215.89801439
 H      4   3   2     1.092233638747   110.21932893   176.30265370
 H      4   3   2     1.090797849617   110.08429530    57.68438800
 H      6   4   3     1.096314339478   109.34057358   286.78948185
 H      6   4   3     1.093099604347   110.01699334   169.71439372
 H      8   2   1     1.086979727299   110.99653781   252.42189042
 H      8   2   1     1.086941882016   110.96198714    12.53967919
 H      8   2   1     1.088330266441   110.12143370   132.04806480
 H      9   2   1     1.088483349665   109.96439485   203.29845998
 H      9   2   1     1.086715138688   111.44930878   323.46809105
 H      9   2   1     1.088073202867   110.38638810    83.61333022
 H     10   5   2     1.081268305493   115.50613822    45.41098564
 H     11   7   5     1.089891454611   109.84017908   135.35018494
 H     11   7   5     1.085946598597   111.87012317    14.43859644
 H     11   7   5     1.090537710856   110.40015097   253.55587378
 H     12  10   5     1.082157768985   118.44917051     0.70682528
 H     14  13  12     1.084425704947   111.97748321   176.68237059
 H     14  13  12     1.090006227291   110.04062270   297.05477263
 H     14  13  12     1.089537959515   110.10262071    56.09973591
 H     15  13  12     1.084325898112   117.14285776   359.91824084
 H     16  15  13     1.079349456525   118.06085403     0.00000000
 H     17  16  15     1.083703421508   117.56569937     0.50806907
 H     19  18  17     1.089143480234   110.14088444   311.08711636
 H     19  18  17     1.085092834423   112.06037476   189.84295639
 H     19  18  17     1.089971470689   109.63887161    69.50449515
 H     20  18  17     1.080700370778   119.91780193   359.68107133
 H     21   1   2     1.095565885985   105.09556016   113.40414694
 H     21   1   2     1.103552405367   109.83813246   229.07759190
 H      1   2   3     0.963607341671    72.44128696   240.50979503

---------------------------
INTERNAL COORDINATES (A.U.)
---------------------------
 O      0   0   0     0.000000000000     0.00000000     0.00000000
 C      1   0   0    22.849794472071     0.00000000     0.00000000
 C      2   1   0     2.899656784595   150.22662453     0.00000000
 C      3   2   1     2.872826749494   111.81851787    93.39655913
 C      2   1   3     2.881512660233    51.26865605    60.62416799
 C      4   3   2     2.876447535094   109.04594662   297.16995121
 C      5   2   1     2.530790462153   122.87348102   190.27119764
 C      2   1   5     2.901945412948    99.08699102   107.77587997
 C      2   1   5     2.900491900299    66.30797066   214.58594253
 C      5   2   1     2.761195872968   114.21128291    12.02538057
 C      7   5   2     2.837923197796   123.71147974   183.77850012
 C     10   5   2     2.536620799805   124.80588271   228.80488051
 C     12  10   5     2.726626744017   126.10302691   179.07006434
 C     13  12  10     2.833822852110   117.77680359     2.45572443
 C     13  12  10     2.564752968007   118.50538807   182.45477546
 C     15  13  12     2.694587307603   128.02292344   179.77869960
 C     16  15  13     2.549478257374   122.45084721   180.30813493
 C     17  16  15     2.735951031244   127.69202141   179.92273148
 C     18  17  16     2.842120414612   114.45935152   183.79720587
 C     18  17  16     2.533431601454   123.42528397     3.24339387
 C      1   2   3     2.662404235547    70.10733492   358.61091198
 H      3   2   1     2.064892633808   108.89026183   333.37024796
 H      3   2   1     2.064048001009   109.27478252   215.89801439
 H      4   3   2     2.064022451489   110.21932893   176.30265370
 H      4   3   2     2.061309203247   110.08429530    57.68438800
 H      6   4   3     2.071733858304   109.34057358   286.78948185
 H      6   4   3     2.065658889314   110.01699334   169.71439372
 H      8   2   1     2.054093997719   110.99653781   252.42189042
 H      8   2   1     2.054022480500   110.96198714    12.53967919
 H      8   2   1     2.056646146830   110.12143370   132.04806480
 H      9   2   1     2.056935432201   109.96439485   203.29845998
 H      9   2   1     2.053593997706   111.44930878   323.46809105
 H      9   2   1     2.056160367078   110.38638810    83.61333022
 H     10   5   2     2.043300974670   115.50613822    45.41098564
 H     11   7   5     2.059596364916   109.84017908   135.35018494
 H     11   7   5     2.052141667412   111.87012317    14.43859644
 H     11   7   5     2.060817612231   110.40015097   253.55587378
 H     12  10   5     2.044981817078   118.44917051     0.70682528
 H     14  13  12     2.049267594934   111.97748321   176.68237059
 H     14  13  12     2.059813253848   110.04062270   297.05477263
 H     14  13  12     2.058928355994   110.10262071    56.09973591
 H     15  13  12     2.049078987349   117.14285776   359.91824084
 H     16  15  13     2.039674875629   118.06085403     0.00000000
 H     17  16  15     2.047902677043   117.56569937     0.50806907
 H     19  18  17     2.058182898187   110.14088444   311.08711636
 H     19  18  17     2.050528286939   112.06037476   189.84295639
 H     19  18  17     2.059747573389   109.63887161    69.50449515
 H     20  18  17     2.042227733598   119.91780193   359.68107133
 H     21   1   2     2.070319486178   105.09556016   113.40414694
 H     21   1   2     2.085411820574   109.83813246   229.07759190
 H      1   2   3     1.820953976394    72.44128696   240.50979503

---------------------
BASIS SET INFORMATION
---------------------
There are 3 groups of distinct atoms

 Group   1 Type O   : 11s6p2d contracted to 5s3p2d pattern {62111/411/11}
 Group   2 Type C   : 11s6p1d contracted to 5s3p1d pattern {62111/411/1}
 Group   3 Type H   : 5s contracted to 3s pattern {311}

Atom   0O    basis set group =>   1
Atom   1C    basis set group =>   2
Atom   2C    basis set group =>   2
Atom   3C    basis set group =>   2
Atom   4C    basis set group =>   2
Atom   5C    basis set group =>   2
Atom   6C    basis set group =>   2
Atom   7C    basis set group =>   2
Atom   8C    basis set group =>   2
Atom   9C    basis set group =>   2
Atom  10C    basis set group =>   2
Atom  11C    basis set group =>   2
Atom  12C    basis set group =>   2
Atom  13C    basis set group =>   2
Atom  14C    basis set group =>   2
Atom  15C    basis set group =>   2
Atom  16C    basis set group =>   2
Atom  17C    basis set group =>   2
Atom  18C    basis set group =>   2
Atom  19C    basis set group =>   2
Atom  20C    basis set group =>   2
Atom  21H    basis set group =>   3
Atom  22H    basis set group =>   3
Atom  23H    basis set group =>   3
Atom  24H    basis set group =>   3
Atom  25H    basis set group =>   3
Atom  26H    basis set group =>   3
Atom  27H    basis set group =>   3
Atom  28H    basis set group =>   3
Atom  29H    basis set group =>   3
Atom  30H    basis set group =>   3
Atom  31H    basis set group =>   3
Atom  32H    basis set group =>   3
Atom  33H    basis set group =>   3
Atom  34H    basis set group =>   3
Atom  35H    basis set group =>   3
Atom  36H    basis set group =>   3
Atom  37H    basis set group =>   3
Atom  38H    basis set group =>   3
Atom  39H    basis set group =>   3
Atom  40H    basis set group =>   3
Atom  41H    basis set group =>   3
Atom  42H    basis set group =>   3
Atom  43H    basis set group =>   3
Atom  44H    basis set group =>   3
Atom  45H    basis set group =>   3
Atom  46H    basis set group =>   3
Atom  47H    basis set group =>   3
Atom  48H    basis set group =>   3
Atom  49H    basis set group =>   3
Atom  50H    basis set group =>   3
---------------------------------
AUXILIARY/J BASIS SET INFORMATION
---------------------------------
There are 3 groups of distinct atoms

 Group   1 Type O   : 8s3p3d contracted to 6s3p3d pattern {311111/111/111}
 Group   2 Type C   : 8s3p3d contracted to 6s3p3d pattern {311111/111/111}
 Group   3 Type H   : 5s2p contracted to 3s1p pattern {311/2}

Atom   0O    basis set group =>   1
Atom   1C    basis set group =>   2
Atom   2C    basis set group =>   2
Atom   3C    basis set group =>   2
Atom   4C    basis set group =>   2
Atom   5C    basis set group =>   2
Atom   6C    basis set group =>   2
Atom   7C    basis set group =>   2
Atom   8C    basis set group =>   2
Atom   9C    basis set group =>   2
Atom  10C    basis set group =>   2
Atom  11C    basis set group =>   2
Atom  12C    basis set group =>   2
Atom  13C    basis set group =>   2
Atom  14C    basis set group =>   2
Atom  15C    basis set group =>   2
Atom  16C    basis set group =>   2
Atom  17C    basis set group =>   2
Atom  18C    basis set group =>   2
Atom  19C    basis set group =>   2
Atom  20C    basis set group =>   2
Atom  21H    basis set group =>   3
Atom  22H    basis set group =>   3
Atom  23H    basis set group =>   3
Atom  24H    basis set group =>   3
Atom  25H    basis set group =>   3
Atom  26H    basis set group =>   3
Atom  27H    basis set group =>   3
Atom  28H    basis set group =>   3
Atom  29H    basis set group =>   3
Atom  30H    basis set group =>   3
Atom  31H    basis set group =>   3
Atom  32H    basis set group =>   3
Atom  33H    basis set group =>   3
Atom  34H    basis set group =>   3
Atom  35H    basis set group =>   3
Atom  36H    basis set group =>   3
Atom  37H    basis set group =>   3
Atom  38H    basis set group =>   3
Atom  39H    basis set group =>   3
Atom  40H    basis set group =>   3
Atom  41H    basis set group =>   3
Atom  42H    basis set group =>   3
Atom  43H    basis set group =>   3
Atom  44H    basis set group =>   3
Atom  45H    basis set group =>   3
Atom  46H    basis set group =>   3
Atom  47H    basis set group =>   3
Atom  48H    basis set group =>   3
Atom  49H    basis set group =>   3
Atom  50H    basis set group =>   3


           ************************************************************
           *        Program running with 16 parallel MPI-processes    *
           *              working on a common directory               *
           ************************************************************
------------------------------------------------------------------------------
                             ORCA STARTUP CALCULATIONS
                           -- RI-GTO INTEGRALS CHOSEN --
------------------------------------------------------------------------------
------------------------------------------------------------------------------
                   ___                                                        
                  /   \      - P O W E R E D   B Y -                         
                 /     \                                                     
                 |  |  |   _    _      __       _____    __    __             
                 |  |  |  | |  | |    /  \     |  _  \  |  |  /  |          
                  \  \/   | |  | |   /    \    | | | |  |  | /  /          
                 / \  \   | |__| |  /  /\  \   | |_| |  |  |/  /          
                |  |  |   |  __  | /  /__\  \  |    /   |      \           
                |  |  |   | |  | | |   __   |  |    \   |  |\   \          
                \     /   | |  | | |  |  |  |  | |\  \  |  | \   \       
                 \___/    |_|  |_| |__|  |__|  |_| \__\ |__|  \__/        
                                                                              
                      - O R C A' S   B I G   F R I E N D -                    
                                      &                                       
                       - I N T E G R A L  F E E D E R -                       
                                                                              
 v1 FN, 2020, v2 2021, v3 2022-2024                                           
------------------------------------------------------------------------------


----------------------
SHARK INTEGRAL PACKAGE
----------------------

Number of atoms                             ...     51
Number of basis functions                   ...    494
Number of shells                            ...    280
Maximum angular momentum                    ...      2
Integral batch strategy                     ... SHARK/LIBINT Hybrid
RI-J (if used) integral strategy            ... SPLIT-RIJ (Revised 2003 algorithm where possible)
Printlevel                                  ...      1
Contraction scheme used                     ... SEGMENTED contraction
Prescreening option                         ... SCHWARTZ
   Thresh                                   ... 2.500e-11
   Tcut                                     ... 2.500e-12
   Tpresel                                  ... 2.500e-12 
Coulomb Range Separation                    ... NOT USED
Exchange Range Separation                   ... NOT USED
Multipole approximations                    ... NOT USED
Finite Nucleus Model                        ... NOT USED
CABS basis                                  ... NOT available
Auxiliary Coulomb fitting basis             ... AVAILABLE
   # of basis functions in Aux-J            ...    810
   # of shells in Aux-J                     ...    372
   Maximum angular momentum in Aux-J        ...      2
Auxiliary J/K fitting basis                 ... NOT available
Auxiliary Correlation fitting basis         ... NOT available
Auxiliary 'external' fitting basis          ... NOT available

Checking pre-screening integrals            ... done (  0.0 sec) Dimension = 280
Check shell pair data                       ... done (  0.0 sec)
Shell pair information
Shell pair cut-off parameter TPreSel        ...   2.5e-12
Total number of shell pairs                 ...     39340
Shell pairs after pre-screening             ...     24408
Total number of primitive shell pairs       ...    140737
Primitive shell pairs kept                  ...     56002
          la=0 lb=0:  11299 shell pairs
          la=1 lb=0:   8278 shell pairs
          la=1 lb=1:   1516 shell pairs
          la=2 lb=0:   2313 shell pairs
          la=2 lb=1:    874 shell pairs
          la=2 lb=2:    128 shell pairs

Calculating one electron integrals          ... done (  0.0 sec)
Calculating RI/J V-Matrix + Cholesky decomp.... done (  0.0 sec)
Calculating Nuclear repulsion               ... done (  0.0 sec) ENN=   1568.901179891443 Eh

Diagonalization of the overlap matrix:
Smallest eigenvalue                        ... 1.946e-05
Time for diagonalization                   ...    0.029 sec
Threshold for overlap eigenvalues          ... 1.000e-07
Number of eigenvalues below threshold      ... 0
Time for construction of square roots      ...    0.012 sec
Total time needed                          ...    0.043 sec

-------------------
DFT GRID GENERATION
-------------------

General Integration Accuracy     IntAcc      ... 4.959
Radial Grid Type                 RadialGrid  ... OptM3 with GC (2021)
Angular Grid (max. ang.)         AngularGrid ... 6 (Lebedev-590)
Angular grid pruning method      GridPruning ... 4 (adaptive)
Weight generation scheme         WeightScheme... mBecke (2022)
Basis function cutoff            BFCut       ... 1.0000e-11
Integration weight cutoff        WCut        ... 1.0000e-14
Partially contracted basis set               ... off
Rotationally invariant grid construction     ... off
Angular grids for H and He will be reduced by one unit
Diffuse basis detected: some atoms will have their outermost
                        angular grid increased by 1.

Total number of grid points                  ...   552578
Total number of batches                      ...     8661
Average number of points per batch           ...       63
Average number of grid points per atom       ...    10835
Initializing property integral containers    ... done (  0.0 sec)

SHARK setup successfully completed in   4.0 seconds

Maximum memory used throughout the entire STARTUP-calculation: 124.2 MB


           ************************************************************
           *        Program running with 16 parallel MPI-processes    *
           *              working on a common directory               *
           ************************************************************
-------------------------------------------------------------------------------
                                 ORCA GUESS
                   Start orbitals & Density for SCF / CASSCF
-------------------------------------------------------------------------------

------------
SCF SETTINGS
------------
Hamiltonian:
 Density Functional     Method          .... DFT(GTOs)
 Exchange Functional    Exchange        .... B973C
 Correlation Functional Correlation     .... B973C
 Gradients option       PostSCFGGA      .... off
 RI-approximation to the Coulomb term is turned on
   Number of AuxJ basis functions       .... 810


General Settings:
 Integral files         IntName         .... m1_00_Vitamin_A-GFN2_050-B97-3C-TZ
 Hartree-Fock type      HFTyp           .... RHF
 Total Charge           Charge          ....    0
 Multiplicity           Mult            ....    1
 Number of Electrons    NEL             ....  158
 Basis Dimension        Dim             ....  494
 Nuclear Repulsion      ENuc            ....   1568.9011798914 Eh

Convergence Acceleration:
 AO-DIIS                CNVDIIS         .... on
   Start iteration      DIISMaxIt       ....    12
   Startup error        DIISStart       ....  0.200000
   # of expansion vecs  DIISMaxEq       ....     5
   Bias factor          DIISBfac        ....   1.050
   Max. coefficient     DIISMaxC        ....  10.000
 MO-DIIS                CNVKDIIS        .... off
 Trust-Rad. Augm. Hess. CNVTRAH         .... off
 SOSCF                  CNVSOSCF        .... on
   Start iteration      SOSCFMaxIt      ....   150
   Startup grad/error   SOSCFStart      ....  0.003300
   Hessian update       SOSCFHessUp     .... L-BFGS
 Level Shifting         CNVShift        .... on
   Level shift para.    LevelShift      ....    0.2500
   Turn off err/grad.   ShiftErr        ....    0.0010
 Zerner damping         CNVZerner       .... off
 Static damping         CNVDamp         .... on
   Fraction old density DampFac         ....    0.7000
   Max. Damping (<1)    DampMax         ....    0.9800
   Min. Damping (>=0)   DampMin         ....    0.0000
   Turn off err/grad.   DampErr         ....    0.1000

SCF Procedure:
 Maximum # iterations   MaxIter         ....   800
 SCF integral mode      SCFMode         .... Direct
   Integral package                     .... SHARK and LIBINT hybrid scheme
 Reset frequency        DirectResetFreq ....    20
 Integral Threshold     Thresh          ....  2.500e-11 Eh
 Primitive CutOff       TCut            ....  2.500e-12 Eh

Convergence Tolerance:
 Convergence Check Mode ConvCheckMode   .... Total+1el-Energy
 Convergence forced     ConvForced      .... 0
 Energy Change          TolE            ....  1.000e-08 Eh
 1-El. energy change                    ....  1.000e-05 Eh
 Orbital Gradient       TolG            ....  1.000e-05
 Orbital Rotation angle TolX            ....  1.000e-05
 DIIS Error             TolErr          ....  5.000e-07

--------------------------------
INITIAL GUESS: MINIMAL BASIS EHT
--------------------------------
The minimal basis has 135 functions
EHT matrix was diagonalized
Basis set overlap was calculated now projecting the orbitals
Using GuessMode=FMatrix for the initial guess
C*T matrix was formed
Effective Fockian was calculated
Effective Fockian was diagonalized
Initial density was built
                      ------------------
                      INITIAL GUESS DONE
                      ------------------
             **** ENERGY FILE WAS UPDATED (m1_00_Vitamin_A-GFN2_050-B97-3C-TZ.en.tmp) ****
Finished Guess after   0.3 sec
Maximum memory used throughout the entire GUESS-calculation: 41.7 MB


           ************************************************************
           *        Program running with 16 parallel MPI-processes    *
           *              working on a common directory               *
           ************************************************************

-------------------------------------------------------------------------------------------
                                      ORCA LEAN-SCF
                              memory conserving SCF solver
-------------------------------------------------------------------------------------------

----------------------------------------D-I-I-S--------------------------------------------
Iteration    Energy (Eh)           Delta-E    RMSDP     MaxDP     DIISErr   Damp  Time(sec)
-------------------------------------------------------------------------------------------
               ***  Starting incremental Fock matrix formation  ***
    1    -852.6597439826168738     0.00e+00  4.09e-03  1.31e-01  4.72e-01  0.700   0.8
Warning: op=0 Small HOMO/LUMO gap (   0.076) - skipping pre-diagonalization
         Will do a full diagonalization
    2    -853.2830253432580321    -6.23e-01  4.32e-03  4.81e-01  3.33e-01  0.700   0.8
    3    -853.7027486949773447    -4.20e-01  2.49e-03  1.66e-01  2.32e-01  0.700   0.8
                               ***Turning on AO-DIIS***
    4    -853.9944497904557466    -2.92e-01  1.86e-03  1.11e-01  1.62e-01  0.700   0.7
    5    -854.1950699530161728    -2.01e-01  1.28e-03  5.86e-02  1.13e-01  0.700   0.7
    6    -854.3393757898966214    -1.44e-01  8.79e-04  2.76e-02  7.93e-02  0.700   0.7
    7    -854.4413316674349517    -1.02e-01  2.08e-03  6.99e-02  5.55e-02  0.000   0.8
    8    -854.6774419954217592    -2.36e-01  5.14e-04  7.44e-02  2.06e-02  0.000   0.8
    9    -854.6778565158278980    -4.15e-04  5.80e-05  3.67e-03  1.38e-02  0.000   0.7
                              *** Initializing SOSCF ***
---------------------------------------S-O-S-C-F--------------------------------------
Iteration    Energy (Eh)           Delta-E    RMSDP     MaxDP     MaxGrad    Time(sec)
--------------------------------------------------------------------------------------
   10    -854.6780936112272684    -2.37e-04  4.54e-05  5.13e-03  2.27e-03     0.8
               *** Restarting incremental Fock matrix formation ***
   11    -854.6781074677560355    -1.39e-05  7.78e-05  1.25e-02  1.38e-04     0.8
   12    -854.6781048850762090     2.58e-06  3.79e-05  6.09e-03  2.59e-04     0.7
   13    -854.6781085133570741    -3.63e-06  7.56e-06  7.93e-04  3.51e-05     0.7
   14    -854.6781083992118511     1.14e-07  4.88e-06  5.95e-04  8.15e-05     0.7
   15    -854.6781085430261555    -1.44e-07  3.64e-06  2.20e-04  3.47e-06     0.6
   16    -854.6781085436136891    -5.88e-10  1.56e-06  1.12e-04  1.02e-05     0.7
                 **** Energy Check signals convergence ****

               *****************************************************
               *                     SUCCESS                       *
               *           SCF CONVERGED AFTER  16 CYCLES          *
               *****************************************************

             **** ENERGY FILE WAS UPDATED (m1_00_Vitamin_A-GFN2_050-B97-3C-TZ.en.tmp) ****

----------------
TOTAL SCF ENERGY
----------------

Total Energy       :       -854.67810854361369 Eh          -23256.97370 eV

Components:
Nuclear Repulsion  :       1568.90117989144301 Eh           42691.97152 eV
Electronic Energy  :      -2423.57928843505670 Eh          -65948.94522 eV
One Electron Energy:      -4272.01729620938022 Eh         -116247.50054 eV
Two Electron Energy:       1848.43800777432330 Eh           50298.55532 eV

Virial components:
Potential Energy   :      -1706.30861621296117 Eh          -46431.01795 eV
Kinetic Energy     :        851.63050766934748 Eh           23174.04426 eV
Virial Ratio       :          2.00357854826339

DFT components:
N(Alpha)           :       78.999982559992 electrons
N(Beta)            :       78.999982559992 electrons
N(Total)           :      157.999965119983 electrons
E(XC)              :     -127.761693506667 Eh       

---------------
SCF CONVERGENCE
---------------

  Last Energy change         ...    5.8753e-10  Tolerance :   1.0000e-08
  Last MAX-Density change    ...    1.1164e-04  Tolerance :   1.0000e-07
  Last RMS-Density change    ...    1.5551e-06  Tolerance :   5.0000e-09
  Last DIIS Error            ...    2.2656e-03  Tolerance :   5.0000e-07
  Last Orbital Gradient      ...    1.0239e-05  Tolerance :   1.0000e-05
  Last Orbital Rotation      ...    1.6495e-05  Tolerance :   1.0000e-05


----------------
ORBITAL ENERGIES
----------------

  NO   OCC          E(Eh)            E(eV) 
   0   2.0000     -18.743114      -510.0261 
   1   2.0000      -9.939932      -270.4793 
   2   2.0000      -9.899827      -269.3880 
   3   2.0000      -9.899567      -269.3809 
   4   2.0000      -9.899349      -269.3750 
   5   2.0000      -9.891579      -269.1636 
   6   2.0000      -9.890737      -269.1406 
   7   2.0000      -9.888871      -269.0899 
   8   2.0000      -9.888371      -269.0762 
   9   2.0000      -9.888305      -269.0745 
  10   2.0000      -9.886284      -269.0195 
  11   2.0000      -9.885859      -269.0079 
  12   2.0000      -9.885523      -268.9988 
  13   2.0000      -9.884972      -268.9838 
  14   2.0000      -9.884675      -268.9757 
  15   2.0000      -9.883346      -268.9395 
  16   2.0000      -9.880777      -268.8696 
  17   2.0000      -9.879361      -268.8311 
  18   2.0000      -9.875256      -268.7194 
  19   2.0000      -9.874878      -268.7091 
  20   2.0000      -9.871199      -268.6090 
  21   2.0000      -0.944942       -25.7132 
  22   2.0000      -0.783964       -21.3327 
  23   2.0000      -0.766180       -20.8488 
  24   2.0000      -0.751567       -20.4512 
  25   2.0000      -0.719774       -19.5861 
  26   2.0000      -0.714936       -19.4544 
  27   2.0000      -0.693821       -18.8798 
  28   2.0000      -0.662478       -18.0269 
  29   2.0000      -0.654862       -17.8197 
  30   2.0000      -0.630802       -17.1650 
  31   2.0000      -0.620967       -16.8974 
  32   2.0000      -0.618853       -16.8399 
  33   2.0000      -0.610655       -16.6168 
  34   2.0000      -0.593448       -16.1486 
  35   2.0000      -0.564249       -15.3540 
  36   2.0000      -0.538212       -14.6455 
  37   2.0000      -0.516099       -14.0438 
  38   2.0000      -0.501406       -13.6440 
  39   2.0000      -0.484512       -13.1842 
  40   2.0000      -0.471918       -12.8415 
  41   2.0000      -0.460050       -12.5186 
  42   2.0000      -0.451192       -12.2776 
  43   2.0000      -0.438457       -11.9310 
  44   2.0000      -0.425070       -11.5667 
  45   2.0000      -0.415670       -11.3110 
  46   2.0000      -0.402814       -10.9611 
  47   2.0000      -0.402275       -10.9465 
  48   2.0000      -0.393193       -10.6993 
  49   2.0000      -0.391260       -10.6467 
  50   2.0000      -0.381722       -10.3872 
  51   2.0000      -0.379175       -10.3179 
  52   2.0000      -0.377150       -10.2628 
  53   2.0000      -0.375395       -10.2150 
  54   2.0000      -0.371626       -10.1125 
  55   2.0000      -0.359385        -9.7794 
  56   2.0000      -0.354877        -9.6567 
  57   2.0000      -0.351041        -9.5523 
  58   2.0000      -0.347012        -9.4427 
  59   2.0000      -0.344353        -9.3703 
  60   2.0000      -0.340355        -9.2615 
  61   2.0000      -0.330598        -8.9960 
  62   2.0000      -0.327716        -8.9176 
  63   2.0000      -0.320874        -8.7314 
  64   2.0000      -0.311443        -8.4748 
  65   2.0000      -0.308649        -8.3988 
  66   2.0000      -0.307214        -8.3597 
  67   2.0000      -0.300811        -8.1855 
  68   2.0000      -0.299850        -8.1593 
  69   2.0000      -0.297141        -8.0856 
  70   2.0000      -0.291468        -7.9312 
  71   2.0000      -0.281209        -7.6521 
  72   2.0000      -0.271208        -7.3800 
  73   2.0000      -0.261794        -7.1238 
  74   2.0000      -0.253748        -6.9048 
  75   2.0000      -0.233896        -6.3646 
  76   2.0000      -0.224643        -6.1129 
  77   2.0000      -0.199272        -5.4225 
  78   2.0000      -0.164119        -4.4659 
  79   0.0000      -0.084078        -2.2879 
  80   0.0000      -0.026690        -0.7263 
  81   0.0000       0.005153         0.1402 
  82   0.0000       0.019828         0.5396 
  83   0.0000       0.023575         0.6415 
  84   0.0000       0.029344         0.7985 
  85   0.0000       0.035241         0.9590 
  86   0.0000       0.037100         1.0096 
  87   0.0000       0.041705         1.1349 
  88   0.0000       0.047335         1.2881 
  89   0.0000       0.049098         1.3360 
*Only the first 10 virtual orbitals were printed.

                    ********************************
                    * MULLIKEN POPULATION ANALYSIS *
                    ********************************

-----------------------
MULLIKEN ATOMIC CHARGES
-----------------------
   0 O :   -0.559218
   1 C :   -0.048681
   2 C :   -0.309494
   3 C :   -0.332254
   4 C :    0.303903
   5 C :   -0.305120
   6 C :   -0.015936
   7 C :   -0.556264
   8 C :   -0.454198
   9 C :   -0.346131
  10 C :   -0.577475
  11 C :   -0.362615
  12 C :    0.282694
  13 C :   -0.572741
  14 C :   -0.229263
  15 C :   -0.057347
  16 C :   -0.278584
  17 C :    0.153859
  18 C :   -0.606610
  19 C :   -0.151340
  20 C :   -0.282198
  21 H :    0.164720
  22 H :    0.175804
  23 H :    0.172961
  24 H :    0.167635
  25 H :    0.159445
  26 H :    0.168664
  27 H :    0.176259
  28 H :    0.163029
  29 H :    0.170346
  30 H :    0.170930
  31 H :    0.167885
  32 H :    0.169367
  33 H :    0.176474
  34 H :    0.155855
  35 H :    0.214127
  36 H :    0.166586
  37 H :    0.169173
  38 H :    0.174785
  39 H :    0.179956
  40 H :    0.181214
  41 H :    0.134353
  42 H :    0.109397
  43 H :    0.142393
  44 H :    0.173781
  45 H :    0.182966
  46 H :    0.186417
  47 H :    0.154423
  48 H :    0.186609
  49 H :    0.173314
  50 H :    0.416142
Sum of atomic charges:   -0.0000000

--------------------------------
MULLIKEN REDUCED ORBITAL CHARGES
--------------------------------
  0 O s       :     3.810812  s :     3.810812
      pz      :     1.297955  p :     4.717947
      px      :     1.691955
      py      :     1.728037
      dz2     :     0.007750  d :     0.030459
      dxz     :     0.010652
      dyz     :     0.001874
      dx2y2   :     0.004651
      dxy     :     0.005532

  1 C s       :     3.004568  s :     3.004568
      pz      :     0.956801  p :     2.987345
      px      :     1.038638
      py      :     0.991906
      dz2     :     0.009667  d :     0.056768
      dxz     :     0.011467
      dyz     :     0.013867
      dx2y2   :     0.013172
      dxy     :     0.008595

  2 C s       :     3.158010  s :     3.158010
      pz      :     1.018226  p :     3.106311
      px      :     0.955902
      py      :     1.132184
      dz2     :     0.010107  d :     0.045173
      dxz     :     0.007649
      dyz     :     0.008421
      dx2y2   :     0.010956
      dxy     :     0.008039

  3 C s       :     3.200134  s :     3.200134
      pz      :     1.043351  p :     3.087345
      px      :     1.099292
      py      :     0.944701
      dz2     :     0.010090  d :     0.044774
      dxz     :     0.005737
      dyz     :     0.010183
      dx2y2   :     0.012431
      dxy     :     0.006334

  4 C s       :     3.081426  s :     3.081426
      pz      :     0.936000  p :     2.565739
      px      :     0.796847
      py      :     0.832892
      dz2     :     0.004165  d :     0.048932
      dxz     :     0.007297
      dyz     :     0.007028
      dx2y2   :     0.016934
      dxy     :     0.013508

  5 C s       :     3.134538  s :     3.134538
      pz      :     1.129164  p :     3.124583
      px      :     0.966837
      py      :     1.028582
      dz2     :     0.006980  d :     0.045999
      dxz     :     0.007955
      dyz     :     0.011290
      dx2y2   :     0.011140
      dxy     :     0.008634

  6 C s       :     3.174632  s :     3.174632
      pz      :     0.995032  p :     2.793698
      px      :     0.988834
      py      :     0.809831
      dz2     :     0.004108  d :     0.047607
      dxz     :     0.007026
      dyz     :     0.007403
      dx2y2   :     0.015778
      dxy     :     0.013291

  7 C s       :     3.262766  s :     3.262766
      pz      :     1.045112  p :     3.255731
      px      :     1.134020
      py      :     1.076599
      dz2     :     0.007552  d :     0.037767
      dxz     :     0.007937
      dyz     :     0.007923
      dx2y2   :     0.009447
      dxy     :     0.004908

  8 C s       :     3.196982  s :     3.196982
      pz      :     1.024610  p :     3.219171
      px      :     1.070589
      py      :     1.123972
      dz2     :     0.005948  d :     0.038045
      dxz     :     0.006347
      dyz     :     0.011483
      dx2y2   :     0.009950
      dxy     :     0.004317

  9 C s       :     3.217679  s :     3.217679
      pz      :     1.002399  p :     3.086419
      px      :     1.074486
      py      :     1.009534
      dz2     :     0.003521  d :     0.042032
      dxz     :     0.008342
      dyz     :     0.006167
      dx2y2   :     0.011805
      dxy     :     0.012197

 10 C s       :     3.305559  s :     3.305559
      pz      :     1.084515  p :     3.233515
      px      :     1.142703
      py      :     1.006297
      dz2     :     0.003879  d :     0.038401
      dxz     :     0.008099
      dyz     :     0.011516
      dx2y2   :     0.010626
      dxy     :     0.004281

 11 C s       :     3.327504  s :     3.327504
      pz      :     1.005701  p :     2.992108
      px      :     1.019158
      py      :     0.967249
      dz2     :     0.003917  d :     0.043002
      dxz     :     0.008420
      dyz     :     0.006725
      dx2y2   :     0.011834
      dxy     :     0.012106

 12 C s       :     3.152169  s :     3.152169
      pz      :     0.855566  p :     2.515853
      px      :     0.876626
      py      :     0.783660
      dz2     :     0.006684  d :     0.049284
      dxz     :     0.008887
      dyz     :     0.007142
      dx2y2   :     0.014520
      dxy     :     0.012052

 13 C s       :     3.272135  s :     3.272135
      pz      :     1.074293  p :     3.262588
      px      :     1.136988
      py      :     1.051307
      dz2     :     0.009349  d :     0.038018
      dxz     :     0.005263
      dyz     :     0.007448
      dx2y2   :     0.011448
      dxy     :     0.004510

 14 C s       :     3.265573  s :     3.265573
      pz      :     0.973605  p :     2.921148
      px      :     0.975309
      py      :     0.972234
      dz2     :     0.004177  d :     0.042542
      dxz     :     0.008796
      dyz     :     0.006176
      dx2y2   :     0.010357
      dxy     :     0.013036

 15 C s       :     3.047239  s :     3.047239
      pz      :     0.986000  p :     2.967789
      px      :     0.952444
      py      :     1.029346
      dz2     :     0.004445  d :     0.042318
      dxz     :     0.008603
      dyz     :     0.006271
      dx2y2   :     0.010399
      dxy     :     0.012600

 16 C s       :     3.197960  s :     3.197960
      pz      :     1.013953  p :     3.039070
      px      :     0.994012
      py      :     1.031106
      dz2     :     0.003970  d :     0.041554
      dxz     :     0.008747
      dyz     :     0.005964
      dx2y2   :     0.009586
      dxy     :     0.013287

 17 C s       :     3.150270  s :     3.150270
      pz      :     0.872465  p :     2.646478
      px      :     0.928237
      py      :     0.845776
      dz2     :     0.007517  d :     0.049393
      dxz     :     0.009703
      dyz     :     0.006459
      dx2y2   :     0.013408
      dxy     :     0.012306

 18 C s       :     3.319715  s :     3.319715
      pz      :     1.080051  p :     3.248927
      px      :     1.142744
      py      :     1.026133
      dz2     :     0.011892  d :     0.037967
      dxz     :     0.002218
      dyz     :     0.007156
      dx2y2   :     0.006618
      dxy     :     0.010084

 19 C s       :     3.129519  s :     3.129519
      pz      :     1.024637  p :     2.983453
      px      :     0.973295
      py      :     0.985521
      dz2     :     0.003801  d :     0.038368
      dxz     :     0.007620
[...]
114:   1504.93   0.001656    8.37  0.000343  ( 0.015888 -0.009446  0.001339)
115:   1509.39   0.001651    8.35  0.000341  (-0.016488 -0.008306  0.000763)
116:   1513.63   0.000548    2.77  0.000113  ( 0.010011 -0.003546  0.000439)
117:   1519.77   0.001648    8.33  0.000338  ( 0.009092 -0.008131  0.013769)
118:   1600.36   0.008116   41.01  0.001583  ( 0.036550 -0.012796 -0.009104)
119:   1609.44   0.003952   19.97  0.000766  (-0.023672  0.013820  0.003874)
120:   1639.13   0.000771    3.89  0.000147  (-0.007189 -0.005513  0.008039)
121:   1659.27   0.002375   12.00  0.000447  (-0.020653  0.004023 -0.001973)
122:   1671.55   0.002034   10.28  0.000380  (-0.009771  0.009880  0.013658)
123:   2938.18   0.008395   42.43  0.000892  (-0.021959 -0.019150 -0.006535)
124:   2974.96   0.009864   49.85  0.001035  ( 0.015681  0.025928 -0.010796)
125:   2975.54   0.006389   32.29  0.000670  ( 0.015823 -0.002010  0.020389)
126:   2980.23   0.013444   67.94  0.001408  (-0.027804  0.000031  0.025194)
127:   2989.27   0.002653   13.41  0.000277  ( 0.004467 -0.012877  0.009551)
128:   2992.94   0.004779   24.15  0.000498  ( 0.003345 -0.006835 -0.020986)
129:   2995.87   0.010387   52.49  0.001082  (-0.009788  0.017649  0.025974)
130:   2997.57   0.008126   41.06  0.000846  (-0.004392  0.028390  0.004540)
131:   2998.13   0.009726   49.15  0.001012  ( 0.008219  0.026346 -0.015831)
132:   3002.29   0.013549   68.47  0.001408  ( 0.033216  0.002348 -0.017306)
133:   3013.01   0.006252   31.59  0.000648  (-0.008950 -0.020928 -0.011377)
134:   3018.36   0.017361   87.73  0.001795  (-0.031966  0.027799  0.000558)
135:   3020.90   0.013412   67.78  0.001385  ( 0.023937  0.000790 -0.028493)
136:   3035.42   0.011951   60.39  0.001229  ( 0.016353  0.018263  0.025053)
137:   3042.59   0.003476   17.56  0.000356  (-0.005898 -0.015829  0.008434)
138:   3043.23   0.003667   18.53  0.000376  (-0.001139 -0.007404  0.017886)
139:   3060.28   0.001926    9.73  0.000196  (-0.001335 -0.006801 -0.012181)
140:   3064.81   0.021257  107.43  0.002164  (-0.030670  0.034298 -0.006892)
141:   3072.08   0.001543    7.80  0.000157  ( 0.007247  0.007846  0.006535)
142:   3076.41   0.006013   30.39  0.000610  ( 0.019812  0.001374  0.014681)
143:   3077.57   0.006448   32.59  0.000654  ( 0.017780  0.014723  0.010998)
144:   3080.23   0.006481   32.75  0.000657  ( 0.019563  0.005464 -0.015623)
145:   3095.81   0.001022    5.17  0.000103  (-0.005360 -0.008620 -0.000035)
146:   3095.94   0.002177   11.00  0.000219  (-0.004936  0.005902  0.012659)
147:   3101.40   0.008689   43.91  0.000874  ( 0.027336 -0.011045 -0.002257)
148:   3103.07   0.010223   51.66  0.001028  (-0.029605 -0.010564 -0.006326)
149:   3108.50   0.000899    4.54  0.000090  ( 0.008829  0.003104 -0.001641)
150:   3110.63   0.002148   10.85  0.000215  ( 0.003910  0.013157  0.005201)
151:   3123.23   0.008266   41.77  0.000826  (-0.027300 -0.007655 -0.004694)
152:   3730.17   0.001808    9.14  0.000151  (-0.003237 -0.009351  0.007303)

* The epsilon (eps) is given for a Dirac delta lineshape.
** The dipole moment derivative (T) already includes vibrational overlap.

The first frequency considered to be a vibration is 6
The total number of vibrations considered is 147


--------------------------
THERMOCHEMISTRY AT 298.15K
--------------------------

Temperature         ...   298.15 K
Pressure            ...     1.00 atm
Total Mass          ...   286.46 AMU
Quasi RRHO          ...     True
Cut-Off Frequency   ...     1.00 cm^-1

Throughout the following assumptions are being made:
  (1) The electronic state is orbitally nondegenerate
  (2) There are no thermally accessible electronically excited states
  (3) Hindered rotations indicated by low frequency modes are not
      treated as such but are treated as vibrations and this may
      cause some error
  (4) All equations used are the standard statistical mechanics
      equations for an ideal gas
  (5) All vibrations are strictly harmonic

freq.      19.36  E(vib)   ...       0.57 
freq.      20.18  E(vib)   ...       0.56 
freq.      33.60  E(vib)   ...       0.55 
freq.      46.24  E(vib)   ...       0.53 
freq.      58.93  E(vib)   ...       0.51 
freq.      67.09  E(vib)   ...       0.50 
freq.      79.50  E(vib)   ...       0.49 
freq.      94.51  E(vib)   ...       0.47 
freq.     108.12  E(vib)   ...       0.45 
freq.     117.95  E(vib)   ...       0.44 
freq.     129.93  E(vib)   ...       0.43 
freq.     159.93  E(vib)   ...       0.39 
freq.     166.43  E(vib)   ...       0.39 
freq.     173.22  E(vib)   ...       0.38 
freq.     181.33  E(vib)   ...       0.37 
freq.     202.41  E(vib)   ...       0.35 
freq.     220.99  E(vib)   ...       0.33 
freq.     236.89  E(vib)   ...       0.32 
freq.     263.69  E(vib)   ...       0.29 
freq.     271.25  E(vib)   ...       0.29 
freq.     275.38  E(vib)   ...       0.28 
freq.     297.87  E(vib)   ...       0.27 
freq.     305.01  E(vib)   ...       0.26 
freq.     319.13  E(vib)   ...       0.25 
freq.     333.00  E(vib)   ...       0.24 
freq.     342.36  E(vib)   ...       0.23 
freq.     352.27  E(vib)   ...       0.23 
freq.     368.21  E(vib)   ...       0.21 
freq.     388.77  E(vib)   ...       0.20 
freq.     412.16  E(vib)   ...       0.19 
freq.     427.02  E(vib)   ...       0.18 
freq.     437.61  E(vib)   ...       0.17 
freq.     476.93  E(vib)   ...       0.15 
freq.     491.87  E(vib)   ...       0.14 
freq.     503.51  E(vib)   ...       0.14 
freq.     509.28  E(vib)   ...       0.14 
freq.     523.80  E(vib)   ...       0.13 
freq.     537.46  E(vib)   ...       0.12 
freq.     581.04  E(vib)   ...       0.11 
freq.     603.59  E(vib)   ...       0.10 
freq.     616.69  E(vib)   ...       0.09 
freq.     646.24  E(vib)   ...       0.09 
freq.     739.38  E(vib)   ...       0.06 
freq.     794.01  E(vib)   ...       0.05 
freq.     798.09  E(vib)   ...       0.05 
freq.     835.78  E(vib)   ...       0.04 
freq.     851.64  E(vib)   ...       0.04 
freq.     859.75  E(vib)   ...       0.04 
freq.     865.94  E(vib)   ...       0.04 
freq.     894.74  E(vib)   ...       0.03 
freq.     899.01  E(vib)   ...       0.03 
freq.     902.97  E(vib)   ...       0.03 
freq.     912.39  E(vib)   ...       0.03 
freq.     937.23  E(vib)   ...       0.03 
freq.     947.91  E(vib)   ...       0.03 
freq.     959.20  E(vib)   ...       0.03 
freq.     970.27  E(vib)   ...       0.03 
freq.     980.36  E(vib)   ...       0.02 
freq.     985.72  E(vib)   ...       0.02 
freq.     992.59  E(vib)   ...       0.02 
freq.    1007.75  E(vib)   ...       0.02 
freq.    1008.22  E(vib)   ...       0.02 
freq.    1024.30  E(vib)   ...       0.02 
freq.    1029.35  E(vib)   ...       0.02 
freq.    1044.18  E(vib)   ...       0.02 
freq.    1049.86  E(vib)   ...       0.02 
freq.    1054.99  E(vib)   ...       0.02 
freq.    1064.66  E(vib)   ...       0.02 
freq.    1082.00  E(vib)   ...       0.02 
freq.    1123.14  E(vib)   ...       0.01 
freq.    1144.40  E(vib)   ...       0.01 
freq.    1155.27  E(vib)   ...       0.01 
freq.    1179.43  E(vib)   ...       0.01 
freq.    1190.21  E(vib)   ...       0.01 
freq.    1199.62  E(vib)   ...       0.01 
freq.    1202.09  E(vib)   ...       0.01 
freq.    1226.63  E(vib)   ...       0.01 
freq.    1231.72  E(vib)   ...       0.01 
freq.    1234.87  E(vib)   ...       0.01 
freq.    1245.01  E(vib)   ...       0.01 
freq.    1282.49  E(vib)   ...       0.01 
freq.    1299.51  E(vib)   ...       0.01 
freq.    1308.65  E(vib)   ...       0.01 
freq.    1328.27  E(vib)   ...       0.01 
freq.    1333.85  E(vib)   ...       0.01 
freq.    1341.03  E(vib)   ...       0.01 
freq.    1349.92  E(vib)   ...       0.01 
freq.    1366.39  E(vib)   ...       0.01 
freq.    1373.44  E(vib)   ...       0.01 
freq.    1376.20  E(vib)   ...       0.01 
freq.    1386.55  E(vib)   ...       0.00 
freq.    1394.95  E(vib)   ...       0.00 
freq.    1400.70  E(vib)   ...       0.00 
freq.    1409.56  E(vib)   ...       0.00 
freq.    1411.08  E(vib)   ...       0.00 
freq.    1414.50  E(vib)   ...       0.00 
freq.    1419.22  E(vib)   ...       0.00 
freq.    1425.17  E(vib)   ...       0.00 
freq.    1475.89  E(vib)   ...       0.00 
freq.    1485.66  E(vib)   ...       0.00 
freq.    1489.27  E(vib)   ...       0.00 
freq.    1490.16  E(vib)   ...       0.00 
freq.    1491.81  E(vib)   ...       0.00 
freq.    1492.70  E(vib)   ...       0.00 
freq.    1493.54  E(vib)   ...       0.00 
freq.    1498.79  E(vib)   ...       0.00 
freq.    1499.21  E(vib)   ...       0.00 
freq.    1501.70  E(vib)   ...       0.00 
freq.    1504.93  E(vib)   ...       0.00 
freq.    1509.39  E(vib)   ...       0.00 
freq.    1513.63  E(vib)   ...       0.00 
freq.    1519.77  E(vib)   ...       0.00 
freq.    1600.36  E(vib)   ...       0.00 
freq.    1609.44  E(vib)   ...       0.00 
freq.    1639.13  E(vib)   ...       0.00 
freq.    1659.27  E(vib)   ...       0.00 
freq.    1671.55  E(vib)   ...       0.00 
freq.    2938.18  E(vib)   ...       0.00 
freq.    2974.96  E(vib)   ...       0.00 
freq.    2975.54  E(vib)   ...       0.00 
freq.    2980.23  E(vib)   ...       0.00 
freq.    2989.27  E(vib)   ...       0.00 
freq.    2992.94  E(vib)   ...       0.00 
freq.    2995.87  E(vib)   ...       0.00 
freq.    2997.57  E(vib)   ...       0.00 
freq.    2998.13  E(vib)   ...       0.00 
freq.    3002.29  E(vib)   ...       0.00 
freq.    3013.01  E(vib)   ...       0.00 
freq.    3018.36  E(vib)   ...       0.00 
freq.    3020.90  E(vib)   ...       0.00 
freq.    3035.42  E(vib)   ...       0.00 
freq.    3042.59  E(vib)   ...       0.00 
freq.    3043.23  E(vib)   ...       0.00 
freq.    3060.28  E(vib)   ...       0.00 
freq.    3064.81  E(vib)   ...       0.00 
freq.    3072.08  E(vib)   ...       0.00 
freq.    3076.41  E(vib)   ...       0.00 
freq.    3077.57  E(vib)   ...       0.00 
freq.    3080.23  E(vib)   ...       0.00 
freq.    3095.81  E(vib)   ...       0.00 
freq.    3095.94  E(vib)   ...       0.00 
freq.    3101.40  E(vib)   ...       0.00 
freq.    3103.07  E(vib)   ...       0.00 
freq.    3108.50  E(vib)   ...       0.00 
freq.    3110.63  E(vib)   ...       0.00 
freq.    3123.23  E(vib)   ...       0.00 
freq.    3730.17  E(vib)   ...       0.00 

------------
INNER ENERGY
------------

The inner energy is: U= E(el) + E(ZPE) + E(vib) + E(rot) + E(trans)
    E(el)   - is the total energy from the electronic structure calculation
              = E(kin-el) + E(nuc-el) + E(el-el) + E(nuc-nuc)
    E(ZPE)  - the the zero temperature vibrational energy from the frequency calculation
    E(vib)  - the the finite temperature correction to E(ZPE) due to population
              of excited vibrational states
    E(rot)  - is the rotational thermal energy
    E(trans)- is the translational thermal energy

Summary of contributions to the inner energy U:
Electronic energy                ...   -854.95327133 Eh
Zero point energy                ...      0.44814225 Eh     281.21 kcal/mol
Thermal vibrational correction   ...      0.02167965 Eh      13.60 kcal/mol
Thermal rotational correction    ...      0.00141627 Eh       0.89 kcal/mol
Thermal translational correction ...      0.00141627 Eh       0.89 kcal/mol
-----------------------------------------------------------------------
Total thermal energy                   -854.48061688 Eh


Summary of corrections to the electronic energy:
(perhaps to be used in another calculation)
Total thermal correction                  0.02451219 Eh      15.38 kcal/mol
Non-thermal (ZPE) correction              0.44814225 Eh     281.21 kcal/mol
-----------------------------------------------------------------------
Total correction                          0.47265445 Eh     296.59 kcal/mol


--------
ENTHALPY
--------

The enthalpy is H = U + kB*T
                kB is Boltzmann's constant
Total thermal energy              ...   -854.48061688 Eh 
Thermal Enthalpy correction       ...      0.00094421 Eh       0.59 kcal/mol
-----------------------------------------------------------------------
Total Enthalpy                    ...   -854.47967267 Eh


Note: Only C1 symmetry has been detected, increase convergence thresholds 
      if your molecule has a higher symmetry. Symmetry factor of 1.0 is   
      used for the rotational entropy correction. 
 

Note: Rotational entropy computed according to Herzberg 
Infrared and Raman Spectra, Chapter V,1, Van Nostrand Reinhold, 1945 
Point Group:  C1, Symmetry Number:   1  
Rotational constants in cm-1:     0.026643     0.002663     0.002594 

Vibrational entropy computed according to the QRRHO of S. Grimme
Chem.Eur.J. 2012 18 9955 using a reference frequency of 100.0 cm-1


-------
ENTROPY
-------

The entropy contributions are T*S = T*(S(el)+S(vib)+S(rot)+S(trans))
     S(el)   - electronic entropy
     S(vib)  - vibrational entropy
     S(rot)  - rotational entropy
     S(trans)- translational entropy
The entropies will be listed as multiplied by the temperature to get
units of energy

Electronic entropy                ...      0.00000000 Eh      0.00 kcal/mol
Vibrational entropy               ...      0.03887743 Eh     24.40 kcal/mol
Rotational entropy                ...      0.01683203 Eh     10.56 kcal/mol
Translational entropy             ...      0.02036176 Eh     12.78 kcal/mol
-----------------------------------------------------------------------
Final entropy term                ...      0.07607123 Eh     47.74 kcal/mol

In case the symmetry of your molecule has not been determined correctly
or in case you have a reason to use a different symmetry number we print 
out the resulting rotational entropy values for sn=1,12:

 non-linear molecules -----------------------------------
|  sn= 1 | S(rot)=       0.01683203 Eh     10.56 kcal/mol|
|  sn= 2 | S(rot)=       0.01617757 Eh     10.15 kcal/mol|
|  sn= 3 | S(rot)=       0.01579474 Eh      9.91 kcal/mol|
|  sn= 4 | S(rot)=       0.01552312 Eh      9.74 kcal/mol|
|  sn= 5 | S(rot)=       0.01531243 Eh      9.61 kcal/mol|
|  sn= 6 | S(rot)=       0.01514029 Eh      9.50 kcal/mol|
|  sn= 7 | S(rot)=       0.01499474 Eh      9.41 kcal/mol|
|  sn= 8 | S(rot)=       0.01486866 Eh      9.33 kcal/mol|
|  sn= 9 | S(rot)=       0.01475745 Eh      9.26 kcal/mol|
|  sn=10 | S(rot)=       0.01465797 Eh      9.20 kcal/mol|
|  sn=11 | S(rot)=       0.01456798 Eh      9.14 kcal/mol|
|  sn=12 | S(rot)=       0.01448583 Eh      9.09 kcal/mol|
 linear molecules ---------------------------------------
|  Dinfh | S(rot)=       0.01094812 Eh      6.87 kcal/mol|
|  Cinfv | S(rot)=       0.01160257 Eh      7.28 kcal/mol|
 --------------------------------------------------------


-------------------
GIBBS FREE ENERGY
-------------------

The Gibbs free energy is G = H - T*S

Total enthalpy                    ...   -854.47967267 Eh 
Total entropy correction          ...     -0.07607123 Eh    -47.74 kcal/mol
-----------------------------------------------------------------------
Final Gibbs free energy         ...   -854.55574390 Eh

For completeness - the Gibbs free energy minus the electronic energy
G-E(el)                           ...      0.39752743 Eh    249.45 kcal/mol


Maximum memory used throughout the entire PROP-calculation: 135.0 MB

--------------------------------
SUGGESTED CITATIONS FOR THIS RUN
--------------------------------

Below you find a list of papers that are relevant to this ORCA run
We neither can nor want to force you to cite these papers, but we appreciate if you do
You receive ORCA, which is the product of decades of hard work by many enthusiastic individuals, for free
The only thing we kindly ask in return is that you cite our papers,
We deeply appreciate it, if you show your appreciation for ORCA by not just citing the generic ORCA reference.

Please note that relegating all ORCA citations to the supporting information does *not* help us.
SI sections are not indexed - citations you put there will not count into any citation statistics
But we need these citations in order to attract the funding resources that allow us to do what we are doing

Therefore, if you are a happy ORCA user, please consider citing a few of the papers listed below in the main body of your paper

In addition to the list printed below, the program has created the file m1_00_Vitamin_A-GFN2_050-B97-3C-TZ.bibtex that contains the list in bibtex format
You can import this file easily into all common literature databanks and citation aid programs


List of essential papers. We consider these as the minimum necessary citations

  1. Neese,F.
     Software update: the ORCA program system, version 5.0
     WIRES Comput. Molec. Sci., 2022 12(1)e1606
     doi.org/10.1002/wcms.1606

List of papers to cite with high priority. The work reported in these papers was absolutely
necessary for this run to complete.
Our perspective: the developers of density functionals and basis sets usually get cited in chemistry papers
Good! But without the algorithms to do something with them, the functionals or basis sets would not do anything.
Hence, in our opinion, the algorithm design and method developments papers are equally worthy of getting cited

  1. Neese,F.
     An improvement of the resolution of the identity approximation for the formation of the Coulomb matrix
     J. Comp. Chem., 2003 24(14)1740-1747
     doi.org/10.1002/jcc.10318
  2. Bykov,D.; Petrenko,T.; Izsak,R.; Kossmann,S.; Becker,U.; Valeev,E.; Neese,F.
     Efficient implementation of the analytic second derivatives of Hartree-Fock and hybrid DFT energies: a detailed analysis of different approximations
     Molec. Phys., 2015 113 1961-1977
     doi.org/10.1080/00268976.2015.1025114
  3. Neese,F.
     The SHARK Integral Generation and Digestion System
     J. Comp. Chem., 2022  1-16
     doi.org/10.1002/jcc.26942
  4. Grimme,S.; Antony,J.; Ehrlich,S.; Krieg,H.
     A consistent and accurate ab initio parametrization of density functional dispersion correction (DFT-D) for the 94 elements H-Pu
     J. Chem. Phys., 2010 132 154104
     doi.org/10.1063/1.3382344
  5. Grimme,S.; Ehrlich,S.; Goerigk,L.
     Effect of the damping function in dispersion corrected density functional theory
     J. Comput. Chem., 2011 32(7)1456-1465
     doi.org/10.1002/jcc.21759

List of suggested additional citations. These are papers that are important in the 'surrounding' of 
of this run, or papers that preceded the highly important papers. If you like your results we are grateful for a citation.

  1. Neese,F.
     The ORCA program system
     WIRES Comput. Molec. Sci., 2012 2(1)73-78
     doi.org/10.1002/wcms.81
  2. Neese,F.
     Software update: the ORCA program system, version 4.0
     WIRES Comput. Molec. Sci., 2018 8(1)1-6
     doi.org/10.1002/wcms.1327
  3. Neese,F.; Wennmohs,F.; Becker,U.; Riplinger,C.
     The ORCA quantum chemistry program package
     J. Chem. Phys., 2020 152 Art. No. L224108
     doi.org/10.1063/5.0004608

List of optional additional citations

  1. Neese,F.
     Approximate second-order SCF convergence for spin unrestricted wavefunctions
     Chem. Phys. Lett., 2000 325(1-3)93-98
     doi.org/10.1016/s0009-2614(00)00662-x

Timings for individual modules:

Sum of individual times          ...      608.018 sec (=  10.134 min)
Startup calculation              ...       66.658 sec (=   1.111 min)  11.0 %
SCF iterations                   ...      136.665 sec (=   2.278 min)  22.5 %
Property integrals               ...      119.415 sec (=   1.990 min)  19.6 %
SCF Response                     ...      149.389 sec (=   2.490 min)  24.6 %
Property calculations            ...       53.170 sec (=   0.886 min)   8.7 %
SCF Gradient evaluation          ...       82.489 sec (=   1.375 min)  13.6 %
Geometry relaxation              ...        0.232 sec (=   0.004 min)   0.0 %
                             ****ORCA TERMINATED NORMALLY****
TOTAL RUN TIME: 0 days 0 hours 10 minutes 11 seconds 548 msec
