
                                 *****************
                                 * O   R   C   A *
                                 *****************

                                            #,                                       
                                            ###                                      
                                            ####                                     
                                            #####                                    
                                            ######                                   
                                           ########,                                 
                                     ,,################,,,,,                         
                               ,,#################################,,                 
                          ,,##########################################,,             
                       ,#########################################, ''#####,          
                    ,#############################################,,   '####,        
                  ,##################################################,,,,####,       
                ,###########''''           ''''###############################       
              ,#####''   ,,,,##########,,,,          '''####'''          '####       
            ,##' ,,,,###########################,,,                        '##       
           ' ,,###''''                  '''############,,,                           
         ,,##''                                '''############,,,,        ,,,,,,###''
      ,#''                                            '''#######################'''  
     '                                                          ''''####''''         
             ,#######,   #######,   ,#######,      ##                                
            ,#'     '#,  ##    ##  ,#'     '#,    #''#        ,####,   ,####,        
            ##       ##  ##   ,#'  ##            #'  '#       #'       #'  '#        
            ##       ##  #######   ##           ,######,      #####,   #    #        
            '#,     ,#'  ##    ##  '#,     ,#' ,#      #,     #,   #   #,  ,#        
             '#######'   ##     ##  '#######'  #'      '#     '####' # '####'        



                #########################################################
                #                        -***-                          #
                #          Department of theory and spectroscopy        #
                #                                                       #
                #                      Frank Neese                      #
                #                                                       #
                #     Directorship, Architecture, Infrastructure        #
                #                    SHARK, DRIVERS                     #
                #        Core code/Algorithms in most modules           #
                #                                                       #
                #        Max Planck Institute fuer Kohlenforschung      #
                #                Kaiser Wilhelm Platz 1                 #
                #                 D-45470 Muelheim/Ruhr                 #
                #                      Germany                          #
                #                                                       #
                #                  All rights reserved                  #
                #                        -***-                          #
                #########################################################


                         Program Version 6.0.1  -  RELEASE   -


 With contributions from (in alphabetic order):
[Max-Planck-Institut fuer Kohlenforschung]                               
  Daniel Aravena         : Magnetic Suceptibility                        
  Michael Atanasov       : Ab Initio Ligand Field Theory (pilot matlab implementation)
  Alexander A. Auer      : GIAO ZORA, VPT2 properties, NMR spectrum      
  Ute Becker             : All parallelization in ORCA, NUMFREQ, NUMCALC 
  Giovanni Bistoni       : ED, misc. LED, open-shell LED, HFLD           
  Martin Brehm           : Molecular dynamics                            
  Dmytro Bykov           : pre 5.0 version of the SCF Hessian            
  Marcos Casanova-Páez   : Triplet and SCS-CIS(D). UHF-(DLPNO)-IP/EA/STEOM-CCSD. UHF-CVS-IP/STEOM-CCSD   
  Vijay G. Chilkuri      : MRCI spin determinant printing, contributions to CSF-ICE 
  Pauline Colinet        : FMM embedding                                 
  Dipayan Datta          : RHF DLPNO-CCSD density                        
  Achintya Kumar Dutta   : EOM-CC, STEOM-CC                              
  Nicolas Foglia         : Exact transition moments, OPA infrastructure, MCD improvements    
  Dmitry Ganyushin       : Spin-Orbit,Spin-Spin,Magnetic field MRCI      
  Miquel Garcia-Rates    : C-PCM and meta-GGA Hessian, CCSD/C-PCM, Gaussian charge scheme 
  Tiago L. C. Gouveia    : GS-ROHF, GS-ROCIS                             
  Yang Guo               : DLPNO-NEVPT2, F12-NEVPT2, CIM, IAO-localization        
  Andreas Hansen         : Spin unrestricted coupled pair/coupled cluster methods 
  Ingolf Harden          : AUTO-CI MPn and infrastructure                
  Benjamin Helmich-Paris : MC-RPA, TRAH-(SCF,CASSCF), AVAS, COSX integrals, SCF dyn. polar. 
  Lee Huntington         : MR-EOM, pCC                                   
  Robert Izsak           : Overlap fitted RIJCOSX, COSX-SCS-MP3, EOM     
  Riya Kayal             : Wick's Theorem for AUTO-CI, AUTO-CI UHF-CCSDT 
  Emily Kempfer          : AUTO-CI, RHF CISDT and CCSDT                  
  Christian Kollmar      : KDIIS, OOCD, Brueckner-CCSD(T), CCSD density, CASPT2, CASPT2-K, improved NEVPT2 
  Axel Koslowski         : Symmetry handling                             
  Simone Kossmann        : meta-GGA functionals, TD-DFT gradient, OOMP2, (MP2 Hessian; deprecated post 5.0) 
  Lucas Lang             : DCDCAS                                        
  Marvin Lechner         : AUTO-CI (C++ implementation), FIC-MRCC        
  Spencer Leger          : CASSCF response                               
  Dagmar Lenk            : GEPOL surface, SMD, ORCA-2-JSON               
  Dimitrios Liakos       : Extrapolation schemes; Compound Job, initial MDCI parallelization 
  Dimitrios Manganas     : Further ROCIS development; embedding schemes. LFT, Crystal Embedding 
  Dimitrios Pantazis     : SARC Basis sets                               
  Anastasios Papadopoulos: AUTO-CI, single reference methods and gradients 
  Taras Petrenko         : pre 6.0 DFT Hessian and TD-DFT gradient, (ASA, deprecated), ECA, 1-Electron XAS/XES, NRVS 
  Peter Pinski           : DLPNO-MP2, DLPNO-MP2 Gradient                 
  Christoph Reimann      : Effective Core Potentials                     
  Marius Retegan         : Local ZFS, SOC                                
  Christoph Riplinger    : Optimizer, TS searches, QM/MM, DLPNO-CCSD(T), (RO)-DLPNO pert. Triples 
  Michael Roemelt        : Original ROCIS implementation                 
  Masaaki Saitow         : Open-shell DLPNO-CCSD energy and density      
  Barbara Sandhoefer     : DKH picture change effects                    
  Kantharuban Sivalingam : CASSCF convergence/infrastructure, NEVPT2 and variants, FIC-MRCI 
  Bernardo de Souza      : ESD, SOC TD-DFT                               
  Georgi L. Stoychev     : AutoAux, RI-MP2 NMR, DLPNO-MP2 response, X2C  
  Van Anh Tran           : RI-MP2 g-tensors                              
  Willem Van den Heuvel  : Paramagnetic NMR                              
  Zikuan Wang            : NOTCH, Electric field optimization            
  Frank Wennmohs         : Technical directorship and infrastructure     
  Hang Xu                : AUTO-CI-Response properties                   
                                                                         
[FACCTs GmbH]                                                            
  Markus Bursch, Miquel Garcia-Rates, Christoph Riplinger, Bernardo de Souza, Georgi L. Stoychev 
                                                                 
  APM, Basis sets (HGBS, AHGBS, def-TZVP (Ac-Lr), def2-XVPD (La-Lu)), CI-OPT, improved COSX, DLPNO-Multilevel,           
  DOCKER, DRACO, updates on ESD, GOAT, IRC, LR-CPCM, MBIS, meta-GGA TD-DFT gradient, ML-optimized integration grids, 
  MM, NACMEs, nearIR, NEB, NEB-TS, NL-DFT gradient (VV10), 2- and 3-layer-ONIOM, interface openCOSMO-RS, QMMM,   
  Crystal-QMMM, SF, symmetry and pop. for TD-DFT, r2SCAN hybrids, SOLVATOR                                   
                                                                         
[Other institutions]                                                     
  V. Asgeirsson          : NEB                                           
  Christoph Bannwarth    : sTDA-DFT, sTD-DFT, PBEh-3c, B97-3c, D3        
  Sebastian Ehlert       : rSCAN, r2SCAN, r2SCAN-3c, D4, dhf basis sets  
  Marvin Friede          : D4 for Fr, Ra, Ac-Lr                          
  Lars Goerigk           : TD-DFT with DH, B97 family of functionals     
  Stefan Grimme          : VdW corrections, initial TS optimization, DFT functionals, gCP, sTDA/sTD-DF 
  Waldemar Hujo          : DFT-NL                                        
  H. Jonsson             : NEB                                           
  Holger Kruse           : gCP                                           
  Marcel Mueller         : wB97X-3c, vDZP basis set                      
  Hagen Neugebauer       : wr2SCAN                                       
  Tobias Risthaus        : range-separated hybrid DFT                    
  Lukas Wittmann         : regularized MP2, r2SCAN double-hybrids, wr2SCAN        
                                                                         
We gratefully acknowledge several colleagues who have allowed us to      
interface, adapt or use parts of their codes:                            
  Ed Valeev, F. Pavosevic, A. Kumar             : LibInt (2-el integral package), F12 methods 
  Garnet Chan, S. Sharma, J. Yang, R. Olivares  : DMRG                   
  Ulf Ekstrom                                   : XCFun DFT Library      
  Mihaly Kallay                                 : mrcc  (arbitrary order and MRCC methods)
  Frank Weinhold                                : gennbo (NPA and NBO analysis)           
  Simon Mueller                                 : openCOSMO-RS                            
  Christopher J. Cramer and Donald G. Truhlar   : smd solvation model                     
  S Lehtola, MJT Oliveira, MAL Marques          : LibXC Library                           
  Liviu Ungur et al                             : ANISO software                          


 Your calculation uses the libint2 library for the computation of 2-el integrals
 For citations please refer to: http://libint.valeyev.net

 Your ORCA version has been built with support for libXC version: 6.2.2
 For citations please refer to: https://libxc.gitlab.io

 This ORCA versions uses:
   CBLAS   interface :  Fast vector & matrix operations
   LAPACKE interface :  Fast linear algebra routines
   SCALAPACK package :  Parallel linear algebra routines
   Shared memory     :  Shared parallel matrices
   BLAS/LAPACK       :  OpenBLAS 0.3.27  USE64BITINT DYNAMIC_ARCH NO_AFFINITY Zen SINGLE_THREADED
        Core in use  :  Zen
   Copyright (c) 2011-2014, The OpenBLAS Project


NOTE: MaxCore=6000 MB was set to SCF,MP2,MDCI,CIPSI,MRCI and CIS
      => If you want to overwrite this, your respective input block should be placed after the MaxCore statement
Your calculation utilizes the atom-pairwise dispersion correction
with the Becke-Johnson damping scheme (D3BJ)


Your calculation employs the composite approach B97-3c by Grimme and coworkers.
For the correct reference, please check the publication list of the Grimme group:
http://www.thch.uni-bonn.de/tc/index.php?section=publikationen&subsection=grimme#2017
   

XCFun DFT library Copyright 2009-2010 Ulf Ekstrom and contributors.
See http://admol.org/xcfun for more information.
This is free software; see the source code for copying conditions.
There is ABSOLUTELY NO WARRANTY; not even for MERCHANTABILITY or FITNESS FOR A PARTICULAR PURPOSE.
For details see the documentation.
Scientific users of this library should cite U. Ekstrom, L. Visscher, R. Bast, A. J. Thorvaldsen and K. Ruud;
J.Chem.Theor.Comp. 2010, DOI: 10.1021/ct100117s
XCFun Version 0.99 

================================================================================

----- Orbital basis set information -----
Your calculation utilizes the basis: def2-mTZVP
----- AuxJ basis set information -----
Your calculation utilizes the basis: def2-mTZVP/J
================================================================================
                                        WARNINGS
                       Please study these warnings very carefully!
================================================================================


WARNING: Geometry Optimization
  ===> : Switching off AutoStart
         For restart on a previous wavefunction, please use MOREAD

================================================================================
                                       INPUT FILE
================================================================================
NAME = m1_00_Vitamin_C-QM3_01-B97-3C-TZ.inp
|  1> %pal nprocs 16 end
|  2> %MaxCore 6000
|  3> # put your comments here
|  4> ! B97-3C  OPT  FREQ DEFGRID3 NOTRAH
|  5> %scf MaxIter 800 end
|  6> %output
|  7> Print [P_Hirshfeld] 1
|  8> end
|  9> %geom
| 10> MaxIter 3000
| 11>  TolE 1e-6 #TolE 5e-6 Energy change (a.u.)
| 12>  TolRMSG 3e-5 #TolRMSG 1e-4 RMS gradient (a.u.)
| 13>  TolMaxG 1e-4 #TolMaxG 3e-3 Max. element of gradient (a.u.)
| 14>  TolRMSD 2e-3 #TolRMSD 2e-3 RMS displacement (a.u.)
| 15>  TolMaxD 4e-3 #TolMaxD 4e-3 Max. displacement (a.u.)
| 16> end
| 17> * xyz 0 1
| 18>  O       1.59765145      -0.88265379      -0.06701653
| 19>  O       0.23802416       2.21479290       1.17854403
| 20>  O      -0.63247227       1.53223772      -1.41138432
| 21>  O      -1.51730675       0.04411589       0.96626920
| 22>  O      -0.98771450      -1.29472772      -2.46502601
| 23>  O       1.01564396      -2.84937515      -1.02011215
| 24>  C       1.13841122       0.44793756      -0.11127110
| 25>  C       0.66997077       0.89671817       1.25415545
| 26>  C       0.05004848       0.42723678      -1.11316380
| 27>  C      -0.39873582      -0.01120807       1.80325010
| 28>  C      -0.09683276      -0.81305016      -1.56948882
| 29>  C       0.88296122      -1.66864414      -0.88423655
| 30>  H       1.95569750       1.10098735      -0.43654095
| 31>  H       1.53766903       0.86090758       1.92890271
| 32>  H      -0.00599619      -1.02970359       1.88716437
| 33>  H      -0.64367566       0.32560999       2.81778871
| 34>  H      -0.51489677       2.24595043       0.57831400
| 35>  H      -1.35326430       1.29818725      -2.00831972
| 36>  H      -2.16112184      -0.61429097       1.24381170
| 37>  H      -0.77406093      -2.23102804      -2.57164032
| 38> *
| 39> 
| 40> 
| 41> 
| 42> 
| 43>                          ****END OF INPUT****
================================================================================

                       *****************************
                       * Geometry Optimization Run *
                       *****************************

Geometry optimization settings:
Update method            Update   .... BFGS
Choice of coordinates    CoordSys .... (2022) Redundant Internals
Initial Hessian          InHess   .... Almloef's Model
Max. no of cycles        MaxIter  .... 3000

Convergence Tolerances:
Energy Change            TolE     ....  1.0000e-06 Eh
Max. Gradient            TolMAXG  ....  1.0000e-04 Eh/bohr
RMS Gradient             TolRMSG  ....  3.0000e-05 Eh/bohr
Max. Displacement        TolMAXD  ....  4.0000e-03 bohr
RMS Displacement         TolRMSD  ....  2.0000e-03 bohr
Strict Convergence                .... False

------------------------------------------------------------------------------
                        ORCA OPTIMIZATION COORDINATE SETUP
------------------------------------------------------------------------------

The optimization will be done in redundant internal coordinates (2022)
Making redundant internal coordinates   ...  (2022 redundants) done
Evaluating the initial hessian          ...  (Almloef) done
Evaluating the coordinates              ...  done
Calculating the B-matrix                .... done
Calculating the G-matrix                .... done
Diagonalizing the G-matrix              .... done
Small eigenvalue found = 1.828e-02
The first mode is                       ....   40
The number of degrees of freedom        ....   54

    -----------------------------------------------------------------
                    Redundant Internal Coordinates


    -----------------------------------------------------------------
         Definition                    Initial Value    Approx d2E/dq
    -----------------------------------------------------------------
      1. B(C   6,O   0)                  1.4083         0.523197   
      2. B(C   7,O   1)                  1.3891         0.561438   
      3. B(C   7,C   6)                  1.5117         0.399556   
      4. B(C   8,O   2)                  1.3326         0.690985   
      5. B(C   8,C   6)                  1.4794         0.449820   
      6. B(C   9,C   7)                  1.5060         0.408041   
      7. B(C   9,O   3)                  1.3981         0.543109   
      8. B(C  10,C   8)                  1.3297         0.779711   
      9. B(C  10,O   4)                  1.3519         0.643635   
     10. B(C  11,C  10)                  1.4702         0.465285   
     11. B(C  11,O   5)                  1.1959         1.141666   
     12. B(C  11,O   0)                  1.3403         0.671683   
     13. B(H  12,C   6)                  1.0956         0.352831   
     14. B(H  13,C   7)                  1.0998         0.347421   
     15. B(H  14,C   9)                  1.0948         0.353787   
     16. B(H  15,C   9)                  1.0967         0.351357   
     17. B(H  16,O   2)                  2.1171         0.007411   
     18. B(H  16,O   1)                  0.9634         0.513505   
     19. B(H  17,O   2)                  0.9647         0.511049   
     20. B(H  18,O   3)                  0.9618         0.516561   
     21. B(H  19,O   5)                  2.4480         0.002198   
     22. B(H  19,O   4)                  0.9663         0.508121   
     23. A(C   6,O   0,C  11)          111.1630         0.421590   
     24. A(C   7,O   1,H  16)          107.9157         0.363098   
     25. A(C   8,O   2,H  17)          108.6615         0.375974   
     26. A(C   9,O   3,H  18)          109.6156         0.361412   
     27. A(C  10,O   4,H  19)          105.8205         0.371033   
     28. A(O   0,C   6,C   8)          104.3564         0.395257   
     29. A(C   7,C   6,C   8)          112.8223         0.379518   
     30. A(O   0,C   6,H  12)          109.2239         0.339711   
     31. A(C   8,C   6,H  12)          110.8597         0.333292   
     32. A(O   0,C   6,C   7)          110.6804         0.387152   
     33. A(C   7,C   6,H  12)          108.8069         0.326827   
     34. A(C   6,C   7,C   9)          111.7313         0.373178   
     35. A(C   9,C   7,H  13)          108.4554         0.327127   
     36. A(C   6,C   7,H  13)          107.4587         0.325997   
     37. A(O   1,C   7,H  13)          108.0371         0.342857   
     38. A(O   1,C   7,C   6)          109.2010         0.391951   
     39. A(O   1,C   7,C   9)          111.7918         0.393395   
     40. A(O   2,C   8,C   6)          121.1136         0.415158   
     41. A(C   6,C   8,C  10)          109.0696         0.426980   
     42. A(O   2,C   8,C  10)          129.7974         0.458402   
     43. A(H  14,C   9,H  15)          107.1532         0.288918   
     44. A(O   3,C   9,H  15)          111.2819         0.341600   
     45. A(C   7,C   9,H  14)          109.5259         0.328107   
     46. A(O   3,C   9,H  14)          111.6966         0.341995   
     47. A(O   3,C   9,C   7)          109.0031         0.391117   
     48. A(C   7,C   9,H  15)          108.0974         0.327735   
     49. A(C   8,C  10,C  11)          108.0138         0.429576   
     50. A(O   4,C  10,C  11)          122.7215         0.412425   
     51. A(O   4,C  10,C   8)          129.2314         0.452514   
     52. A(O   0,C  11,O   5)          126.0932         0.485834   
     53. A(O   5,C  11,C  10)          126.5511         0.457221   
     54. A(O   0,C  11,C  10)          107.3538         0.415562   
     55. D(C   7,C   6,O   0,C  11)    119.6864         0.021713   
     56. D(C   8,C   6,O   0,C  11)     -1.9526         0.021713   
     57. D(H  12,C   6,O   0,C  11)   -120.5410         0.021713   
     58. D(C   9,C   7,C   6,H  12)   -176.4639         0.012667   
     59. D(O   1,C   7,C   6,C   8)    -64.1222         0.012667   
     60. D(C   9,C   7,C   6,C   8)     60.0710         0.012667   
     61. D(C   9,C   7,O   1,H  16)    -61.4584         0.025181   
     62. D(H  13,C   7,O   1,H  16)    179.2838         0.025181   
     63. D(C   6,C   7,O   1,H  16)     62.6993         0.025181   
     64. D(O   1,C   7,C   6,O   0)    179.3654         0.012667   
     65. D(O   1,C   7,C   6,H  12)     59.3428         0.012667   
     66. D(C   9,C   7,C   6,O   0)    -56.4414         0.012667   
     67. D(O   2,C   8,C   6,O   0)    179.4876         0.014922   
     68. D(C  10,C   8,O   2,H  17)      4.1707         0.039409   
     69. D(C   6,C   8,O   2,H  17)   -174.0402         0.039409   
     70. D(C  10,C   8,C   6,C   7)   -119.2705         0.014922   
     71. D(C  10,C   8,C   6,O   0)      0.9419         0.014922   
     72. D(O   2,C   8,C   6,H  12)    -63.0450         0.014922   
     73. D(O   2,C   8,C   6,C   7)     59.2751         0.014922   
     74. D(H  14,C   9,C   7,H  13)    -58.5725         0.013193   
     75. D(H  14,C   9,C   7,O   1)   -177.5829         0.013193   
     76. D(O   3,C   9,C   7,H  13)    178.9486         0.013193   
     77. D(O   3,C   9,C   7,C   6)    -62.7895         0.013193   
     78. D(O   3,C   9,C   7,O   1)     59.9382         0.013193   
     79. D(H  15,C   9,O   3,H  18)    -68.0522         0.023479   
     80. D(H  14,C   9,C   7,C   6)     59.6893         0.013193   
     81. D(H  14,C   9,O   3,H  18)     51.6589         0.023479   
     82. D(C   7,C   9,O   3,H  18)    172.8220         0.023479   
     83. D(O   4,C  10,C   8,O   2)     -0.1694         0.043694   
     84. D(C  11,C  10,O   4,H  19)     -4.2736         0.030568   
     85. D(C   8,C  10,O   4,H  19)    178.0906         0.030568   
     86. D(C  11,C  10,C   8,C   6)      0.3014         0.043694   
     87. D(C  11,C  10,C   8,O   2)   -178.0780         0.043694   
     88. D(O   4,C  10,C   8,C   6)    178.2100         0.043694   
     89. D(O   5,C  11,C  10,C   8)    178.0010         0.014744   
     90. D(O   5,C  11,C  10,O   4)     -0.0734         0.014744   
     91. D(O   0,C  11,C  10,C   8)     -1.5169         0.014744   
     92. D(O   0,C  11,C  10,O   4)   -179.5913         0.014744   
     93. D(C  10,C  11,O   0,C   6)      2.1703         0.033530   
     94. D(O   5,C  11,O   0,C   6)   -177.3505         0.033530   
    -----------------------------------------------------------------

Number of atoms                         .... 20
Number of degrees of freedom            .... 94


         *************************************************************
         *                GEOMETRY OPTIMIZATION CYCLE   1            *
         *************************************************************
---------------------------------
CARTESIAN COORDINATES (ANGSTROEM)
---------------------------------
  O      1.597651   -0.882654   -0.067017
  O      0.238024    2.214793    1.178544
  O     -0.632472    1.532238   -1.411384
  O     -1.517307    0.044116    0.966269
  O     -0.987714   -1.294728   -2.465026
  O      1.015644   -2.849375   -1.020112
  C      1.138411    0.447938   -0.111271
  C      0.669971    0.896718    1.254155
  C      0.050048    0.427237   -1.113164
  C     -0.398736   -0.011208    1.803250
  C     -0.096833   -0.813050   -1.569489
  C      0.882961   -1.668644   -0.884237
  H      1.955698    1.100987   -0.436541
  H      1.537669    0.860908    1.928903
  H     -0.005996   -1.029704    1.887164
  H     -0.643676    0.325610    2.817789
  H     -0.514897    2.245950    0.578314
  H     -1.353264    1.298187   -2.008320
  H     -2.161122   -0.614291    1.243812
  H     -0.774061   -2.231028   -2.571640

----------------------------
CARTESIAN COORDINATES (A.U.)
----------------------------
  NO LB      ZA    FRAG     MASS         X           Y           Z
   0 O     8.0000    0    15.999    3.019124   -1.667974   -0.126643
   1 O     8.0000    0    15.999    0.449800    4.185352    2.227125
   2 O     8.0000    0    15.999   -1.195199    2.895510   -2.667130
   3 O     8.0000    0    15.999   -2.867294    0.083367    1.825984
   4 O     8.0000    0    15.999   -1.866510   -2.446681   -4.658224
   5 O     8.0000    0    15.999    1.919289   -5.384539   -1.927733
   6 C     6.0000    0    12.011    2.151285    0.846479   -0.210272
   7 C     6.0000    0    12.011    1.266061    1.694552    2.370010
   8 C     6.0000    0    12.011    0.094578    0.807361   -2.103575
   9 C     6.0000    0    12.011   -0.753501   -0.021180    3.407649
  10 C     6.0000    0    12.011   -0.182987   -1.536442   -2.965904
  11 C     6.0000    0    12.011    1.668555   -3.153280   -1.670965
  12 H     1.0000    0     1.008    3.695733    2.080565   -0.824943
  13 H     1.0000    0     1.008    2.905773    1.626880    3.645098
  14 H     1.0000    0     1.008   -0.011331   -1.945858    3.566224
  15 H     1.0000    0     1.008   -1.216371    0.615314    5.324849
  16 H     1.0000    0     1.008   -0.973014    4.244231    1.092855
  17 H     1.0000    0     1.008   -2.557299    2.453218   -3.795174
  18 H     1.0000    0     1.008   -4.083928   -1.160842    2.350463
  19 H     1.0000    0     1.008   -1.462763   -4.216032   -4.859696

--------------------------------
INTERNAL COORDINATES (ANGSTROEM)
--------------------------------
 O      0   0   0     0.000000000000     0.00000000     0.00000000
 O      1   0   0     3.604744578154     0.00000000     0.00000000
 O      2   1   0     2.816269601178    65.83075367     0.00000000
 O      2   1   3     2.799658173563    62.87462436    70.97008181
 O      3   2   1     3.037777386814   125.49690277    30.85721268
 O      1   2   3     2.261662416710   142.72750313   309.57853982
 C      1   2   3     1.408308700716    22.48380118    36.89785609
 C      2   1   3     1.389106171100    23.96308664   141.58813666
 C      3   2   1     1.332590383475    80.61042953     6.01013810
 C      4   2   1     1.398141156306    58.91425056    61.44624886
 C      9   3   2     1.329706101391   129.79741559   153.81548561
 C      6   1   2     1.195906604273    28.61168362    37.23863831
 H      7   1   2     1.095550714031   109.22385791   119.16871748
 H      8   2   1     1.099757488559   108.03706898   116.01332940
 H     10   4   2     1.094814662828   111.69660021   211.08760493
 H     10   4   2     1.096690713894   111.28192545    91.37652465
 H      2   1   3     0.963398571424    96.15879492    20.32184116
 H      3   2   1     0.964703397315   149.18110963   116.85566237
 H      4   2   1     0.961783396983   158.21609592   124.55598538
 H      5   3   2     0.966267431047   156.08596579   322.79047966

---------------------------
INTERNAL COORDINATES (A.U.)
---------------------------
 O      0   0   0     0.000000000000     0.00000000     0.00000000
 O      1   0   0     6.811980035449     0.00000000     0.00000000
 O      2   1   0     5.321978265515    65.83075367     0.00000000
 O      2   1   3     5.290587216627    62.87462436    70.97008181
 O      3   2   1     5.740567316897   125.49690277    30.85721268
 O      1   2   3     4.273922574965   142.72750313   309.57853982
 C      1   2   3     2.661317756371    22.48380118    36.89785609
 C      2   1   3     2.625030234320    23.96308664   141.58813666
 C      3   2   1     2.518230873465    80.61042953     6.01013810
 C      4   2   1     2.642103881982    58.91425056    61.44624886
 C      9   3   2     2.512780370233   129.79741559   153.81548561
 C      6   1   2     2.259935963825    28.61168362    37.23863831
 H      7   1   2     2.070290815341   109.22385791   119.16871748
 H      8   2   1     2.078240467105   108.03706898   116.01332940
 H     10   4   2     2.068899880145   111.69660021   211.08760493
 H     10   4   2     2.072445102875   111.28192545    91.37652465
 H      2   1   3     1.820559457802    96.15879492    20.32184116
 H      3   2   1     1.823025221390   149.18110963   116.85566237
 H      4   2   1     1.817507220451   158.21609592   124.55598538
 H      5   3   2     1.825980816807   156.08596579   322.79047966

---------------------
BASIS SET INFORMATION
---------------------
There are 3 groups of distinct atoms

 Group   1 Type O   : 11s6p2d contracted to 5s3p2d pattern {62111/411/11}
 Group   2 Type C   : 11s6p1d contracted to 5s3p1d pattern {62111/411/1}
 Group   3 Type H   : 5s contracted to 3s pattern {311}

Atom   0O    basis set group =>   1
Atom   1O    basis set group =>   1
Atom   2O    basis set group =>   1
Atom   3O    basis set group =>   1
Atom   4O    basis set group =>   1
Atom   5O    basis set group =>   1
Atom   6C    basis set group =>   2
Atom   7C    basis set group =>   2
Atom   8C    basis set group =>   2
Atom   9C    basis set group =>   2
Atom  10C    basis set group =>   2
Atom  11C    basis set group =>   2
Atom  12H    basis set group =>   3
Atom  13H    basis set group =>   3
Atom  14H    basis set group =>   3
Atom  15H    basis set group =>   3
Atom  16H    basis set group =>   3
Atom  17H    basis set group =>   3
Atom  18H    basis set group =>   3
Atom  19H    basis set group =>   3
---------------------------------
AUXILIARY/J BASIS SET INFORMATION
---------------------------------
There are 3 groups of distinct atoms

 Group   1 Type O   : 8s3p3d contracted to 6s3p3d pattern {311111/111/111}
 Group   2 Type C   : 8s3p3d contracted to 6s3p3d pattern {311111/111/111}
 Group   3 Type H   : 5s2p contracted to 3s1p pattern {311/2}

Atom   0O    basis set group =>   1
Atom   1O    basis set group =>   1
Atom   2O    basis set group =>   1
Atom   3O    basis set group =>   1
Atom   4O    basis set group =>   1
Atom   5O    basis set group =>   1
Atom   6C    basis set group =>   2
Atom   7C    basis set group =>   2
Atom   8C    basis set group =>   2
Atom   9C    basis set group =>   2
Atom  10C    basis set group =>   2
Atom  11C    basis set group =>   2
Atom  12H    basis set group =>   3
Atom  13H    basis set group =>   3
Atom  14H    basis set group =>   3
Atom  15H    basis set group =>   3
Atom  16H    basis set group =>   3
Atom  17H    basis set group =>   3
Atom  18H    basis set group =>   3
Atom  19H    basis set group =>   3


           ************************************************************
           *        Program running with 16 parallel MPI-processes    *
           *              working on a common directory               *
           ************************************************************
------------------------------------------------------------------------------
                             ORCA STARTUP CALCULATIONS
                           -- RI-GTO INTEGRALS CHOSEN --
------------------------------------------------------------------------------
------------------------------------------------------------------------------
                   ___                                                        
                  /   \      - P O W E R E D   B Y -                         
                 /     \                                                     
                 |  |  |   _    _      __       _____    __    __             
                 |  |  |  | |  | |    /  \     |  _  \  |  |  /  |          
                  \  \/   | |  | |   /    \    | | | |  |  | /  /          
                 / \  \   | |__| |  /  /\  \   | |_| |  |  |/  /          
                |  |  |   |  __  | /  /__\  \  |    /   |      \           
                |  |  |   | |  | | |   __   |  |    \   |  |\   \          
                \     /   | |  | | |  |  |  |  | |\  \  |  | \   \       
                 \___/    |_|  |_| |__|  |__|  |_| \__\ |__|  \__/        
                                                                              
                      - O R C A' S   B I G   F R I E N D -                    
                                      &                                       
                       - I N T E G R A L  F E E D E R -                       
                                                                              
 v1 FN, 2020, v2 2021, v3 2022-2024                                           
------------------------------------------------------------------------------


----------------------
SHARK INTEGRAL PACKAGE
----------------------

Number of atoms                             ...     20
Number of basis functions                   ...    282
Number of shells                            ...    138
Maximum angular momentum                    ...      2
Integral batch strategy                     ... SHARK/LIBINT Hybrid
RI-J (if used) integral strategy            ... SPLIT-RIJ (Revised 2003 algorithm where possible)
Printlevel                                  ...      1
Contraction scheme used                     ... SEGMENTED contraction
Prescreening option                         ... SCHWARTZ
   Thresh                                   ... 2.500e-11
   Tcut                                     ... 2.500e-12
   Tpresel                                  ... 2.500e-12 
Coulomb Range Separation                    ... NOT USED
Exchange Range Separation                   ... NOT USED
Multipole approximations                    ... NOT USED
Finite Nucleus Model                        ... NOT USED
CABS basis                                  ... NOT available
Auxiliary Coulomb fitting basis             ... AVAILABLE
   # of basis functions in Aux-J            ...    408
   # of shells in Aux-J                     ...    176
   Maximum angular momentum in Aux-J        ...      2
Auxiliary J/K fitting basis                 ... NOT available
Auxiliary Correlation fitting basis         ... NOT available
Auxiliary 'external' fitting basis          ... NOT available

Checking pre-screening integrals            ... done (  0.0 sec) Dimension = 138
Check shell pair data                       ... done (  0.0 sec)
Shell pair information
Shell pair cut-off parameter TPreSel        ...   2.5e-12
Total number of shell pairs                 ...      9591
Shell pairs after pre-screening             ...      8601
Total number of primitive shell pairs       ...     34741
Primitive shell pairs kept                  ...     21520
          la=0 lb=0:   2991 shell pairs
          la=1 lb=0:   2782 shell pairs
          la=1 lb=1:    645 shell pairs
          la=2 lb=0:   1385 shell pairs
          la=2 lb=1:    630 shell pairs
          la=2 lb=2:    168 shell pairs

Calculating one electron integrals          ... done (  0.0 sec)
Calculating RI/J V-Matrix + Cholesky decomp.... done (  0.0 sec)
Calculating Nuclear repulsion               ... done (  0.0 sec) ENN=    799.300198387962 Eh

Diagonalization of the overlap matrix:
Smallest eigenvalue                        ... 2.031e-05
Time for diagonalization                   ...    0.006 sec
Threshold for overlap eigenvalues          ... 1.000e-07
Number of eigenvalues below threshold      ... 0
Time for construction of square roots      ...    0.003 sec
Total time needed                          ...    0.010 sec

-------------------
DFT GRID GENERATION
-------------------

General Integration Accuracy     IntAcc      ... 4.959
Radial Grid Type                 RadialGrid  ... OptM3 with GC (2021)
Angular Grid (max. ang.)         AngularGrid ... 6 (Lebedev-590)
Angular grid pruning method      GridPruning ... 4 (adaptive)
Weight generation scheme         WeightScheme... mBecke (2022)
Basis function cutoff            BFCut       ... 1.0000e-11
Integration weight cutoff        WCut        ... 1.0000e-14
Partially contracted basis set               ... off
Rotationally invariant grid construction     ... off
Angular grids for H and He will be reduced by one unit
Diffuse basis detected: some atoms will have their outermost
                        angular grid increased by 1.

Total number of grid points                  ...   243531
Total number of batches                      ...     3816
Average number of points per batch           ...       63
Average number of grid points per atom       ...    12177
Initializing property integral containers    ... done (  0.0 sec)

SHARK setup successfully completed in   2.0 seconds

Maximum memory used throughout the entire STARTUP-calculation: 54.8 MB


           ************************************************************
           *        Program running with 16 parallel MPI-processes    *
           *              working on a common directory               *
           ************************************************************
-------------------------------------------------------------------------------
                                 ORCA GUESS
                   Start orbitals & Density for SCF / CASSCF
-------------------------------------------------------------------------------

------------
SCF SETTINGS
------------
Hamiltonian:
 Density Functional     Method          .... DFT(GTOs)
 Exchange Functional    Exchange        .... B973C
 Correlation Functional Correlation     .... B973C
 Gradients option       PostSCFGGA      .... off
 RI-approximation to the Coulomb term is turned on
   Number of AuxJ basis functions       .... 408


General Settings:
 Integral files         IntName         .... m1_00_Vitamin_C-QM3_01-B97-3C-TZ
 Hartree-Fock type      HFTyp           .... RHF
 Total Charge           Charge          ....    0
 Multiplicity           Mult            ....    1
 Number of Electrons    NEL             ....   92
 Basis Dimension        Dim             ....  282
 Nuclear Repulsion      ENuc            ....    799.3001983880 Eh

Convergence Acceleration:
 AO-DIIS                CNVDIIS         .... on
   Start iteration      DIISMaxIt       ....    12
   Startup error        DIISStart       ....  0.200000
   # of expansion vecs  DIISMaxEq       ....     5
   Bias factor          DIISBfac        ....   1.050
   Max. coefficient     DIISMaxC        ....  10.000
 MO-DIIS                CNVKDIIS        .... off
 Trust-Rad. Augm. Hess. CNVTRAH         .... off
 SOSCF                  CNVSOSCF        .... on
   Start iteration      SOSCFMaxIt      ....   150
   Startup grad/error   SOSCFStart      ....  0.003300
   Hessian update       SOSCFHessUp     .... L-BFGS
 Level Shifting         CNVShift        .... on
   Level shift para.    LevelShift      ....    0.2500
   Turn off err/grad.   ShiftErr        ....    0.0010
 Zerner damping         CNVZerner       .... off
 Static damping         CNVDamp         .... on
   Fraction old density DampFac         ....    0.7000
   Max. Damping (<1)    DampMax         ....    0.9800
   Min. Damping (>=0)   DampMin         ....    0.0000
   Turn off err/grad.   DampErr         ....    0.1000

SCF Procedure:
 Maximum # iterations   MaxIter         ....   800
 SCF integral mode      SCFMode         .... Direct
   Integral package                     .... SHARK and LIBINT hybrid scheme
 Reset frequency        DirectResetFreq ....    20
 Integral Threshold     Thresh          ....  2.500e-11 Eh
 Primitive CutOff       TCut            ....  2.500e-12 Eh

Convergence Tolerance:
 Convergence Check Mode ConvCheckMode   .... Total+1el-Energy
 Convergence forced     ConvForced      .... 0
 Energy Change          TolE            ....  1.000e-08 Eh
 1-El. energy change                    ....  1.000e-05 Eh
 Orbital Gradient       TolG            ....  1.000e-05
 Orbital Rotation angle TolX            ....  1.000e-05
 DIIS Error             TolErr          ....  5.000e-07

--------------------------------
INITIAL GUESS: MINIMAL BASIS EHT
--------------------------------
The minimal basis has 68 functions
EHT matrix was diagonalized
Basis set overlap was calculated now projecting the orbitals
Using GuessMode=FMatrix for the initial guess
C*T matrix was formed
Effective Fockian was calculated
Effective Fockian was diagonalized
Initial density was built
                      ------------------
                      INITIAL GUESS DONE
                      ------------------
             **** ENERGY FILE WAS UPDATED (m1_00_Vitamin_C-QM3_01-B97-3C-TZ.en.tmp) ****
Finished Guess after   0.1 sec
Maximum memory used throughout the entire GUESS-calculation: 15.8 MB


           ************************************************************
           *        Program running with 16 parallel MPI-processes    *
           *              working on a common directory               *
           ************************************************************

-------------------------------------------------------------------------------------------
                                      ORCA LEAN-SCF
                              memory conserving SCF solver
-------------------------------------------------------------------------------------------

----------------------------------------D-I-I-S--------------------------------------------
Iteration    Energy (Eh)           Delta-E    RMSDP     MaxDP     DIISErr   Damp  Time(sec)
-------------------------------------------------------------------------------------------
               ***  Starting incremental Fock matrix formation  ***
    1    -681.9184451587844933     0.00e+00  9.70e-03  4.26e-01  4.59e-01  0.700   0.3
    2    -682.8322095833863159    -9.14e-01  9.70e-03  5.44e-01  3.30e-01  0.700   0.3
    3    -683.2759265148646364    -4.44e-01  4.57e-03  1.99e-01  2.34e-01  0.700   0.3
                               ***Turning on AO-DIIS***
    4    -683.6067326143594300    -3.31e-01  2.97e-03  1.87e-01  1.63e-01  0.700   0.3
    5    -683.8384204840577922    -2.32e-01  2.20e-03  1.33e-01  1.12e-01  0.700   0.3
    6    -684.0010322491147008    -1.63e-01  1.48e-03  7.21e-02  7.85e-02  0.700   0.3
    7    -684.1153204359526399    -1.14e-01  3.60e-03  1.95e-01  5.51e-02  0.000   0.3
    8    -684.3791845163194694    -2.64e-01  9.75e-04  6.38e-02  3.34e-02  0.000   0.3
    9    -684.3817261929285678    -2.54e-03  2.83e-04  2.14e-02  1.24e-02  0.000   0.3
   10    -684.3818103869340348    -8.42e-05  1.07e-04  8.01e-03  7.86e-03  0.000   0.3
                              *** Initializing SOSCF ***
---------------------------------------S-O-S-C-F--------------------------------------
Iteration    Energy (Eh)           Delta-E    RMSDP     MaxDP     MaxGrad    Time(sec)
--------------------------------------------------------------------------------------
   11    -684.3819772700195472    -1.67e-04  4.76e-05  3.46e-03  1.26e-03     0.3
               *** Restarting incremental Fock matrix formation ***
   12    -684.3819847661246740    -7.50e-06  6.32e-05  5.28e-03  1.06e-04     0.3
   13    -684.3819835153100257     1.25e-06  1.86e-05  1.30e-03  2.10e-04     0.3
   14    -684.3819851526578759    -1.64e-06  7.55e-05  5.56e-03  3.01e-05     0.3
   15    -684.3819850495941637     1.03e-07  4.10e-06  1.68e-04  7.41e-05     0.3
   16    -684.3819851714571314    -1.22e-07  1.21e-05  8.74e-04  7.09e-06     0.3
   17    -684.3819851654121749     6.04e-09  4.62e-06  3.95e-04  1.98e-05     0.3
                 **** Energy Check signals convergence ****

               *****************************************************
               *                     SUCCESS                       *
               *           SCF CONVERGED AFTER  17 CYCLES          *
               *****************************************************

             **** ENERGY FILE WAS UPDATED (m1_00_Vitamin_C-QM3_01-B97-3C-TZ.en.tmp) ****

----------------
TOTAL SCF ENERGY
----------------

Total Energy       :       -684.38198516541217 Eh          -18622.98059 eV

Components:
Nuclear Repulsion  :        799.30019838796250 Eh           21750.06415 eV
Electronic Energy  :      -1483.68218355337467 Eh          -40373.04474 eV
One Electron Energy:      -2525.18741840490065 Eh          -68713.84300 eV
Two Electron Energy:       1041.50523485152598 Eh           28340.79826 eV

Virial components:
Potential Energy   :      -1366.73390005556735 Eh          -37190.72016 eV
Kinetic Energy     :        682.35191489015517 Eh           18567.73957 eV
Virial Ratio       :          2.00297510746428

DFT components:
N(Alpha)           :       45.999998065850 electrons
N(Beta)            :       45.999998065850 electrons
N(Total)           :       91.999996131699 electrons
E(XC)              :      -86.751821266949 Eh       

---------------
SCF CONVERGENCE
---------------

  Last Energy change         ...   -6.0450e-09  Tolerance :   1.0000e-08
  Last MAX-Density change    ...    3.9525e-04  Tolerance :   1.0000e-07
  Last RMS-Density change    ...    4.6152e-06  Tolerance :   5.0000e-09
  Last DIIS Error            ...    1.2557e-03  Tolerance :   5.0000e-07
  Last Orbital Gradient      ...    1.9817e-05  Tolerance :   1.0000e-05
  Last Orbital Rotation      ...    4.1198e-05  Tolerance :   1.0000e-05


----------------
ORBITAL ENERGIES
----------------

  NO   OCC          E(Eh)            E(eV) 
   0   2.0000     -18.812956      -511.9265 
   1   2.0000     -18.800118      -511.5772 
   2   2.0000     -18.793078      -511.3857 
   3   2.0000     -18.764521      -510.6086 
   4   2.0000     -18.752530      -510.2823 
   5   2.0000     -18.733098      -509.7535 
   6   2.0000     -10.014164      -272.4992 
   7   2.0000      -9.973130      -271.3827 
   8   2.0000      -9.968244      -271.2497 
   9   2.0000      -9.958940      -270.9965 
  10   2.0000      -9.950407      -270.7643 
  11   2.0000      -9.946442      -270.6565 
  12   2.0000      -1.049278       -28.5523 
  13   2.0000      -1.023753       -27.8577 
  14   2.0000      -0.997653       -27.1475 
  15   2.0000      -0.978736       -26.6328 
  16   2.0000      -0.959803       -26.1176 
  17   2.0000      -0.955946       -26.0126 
  18   2.0000      -0.751351       -20.4453 
  19   2.0000      -0.720389       -19.6028 
  20   2.0000      -0.664018       -18.0688 
  21   2.0000      -0.597275       -16.2527 
  22   2.0000      -0.573818       -15.6144 
  23   2.0000      -0.564490       -15.3605 
  24   2.0000      -0.513172       -13.9641 
  25   2.0000      -0.510511       -13.8917 
  26   2.0000      -0.495139       -13.4734 
  27   2.0000      -0.487338       -13.2611 
  28   2.0000      -0.441793       -12.0218 
  29   2.0000      -0.433860       -11.8059 
  30   2.0000      -0.406365       -11.0578 
  31   2.0000      -0.398426       -10.8417 
  32   2.0000      -0.394539       -10.7360 
  33   2.0000      -0.381929       -10.3928 
  34   2.0000      -0.379148       -10.3171 
  35   2.0000      -0.376455       -10.2439 
  36   2.0000      -0.362669        -9.8687 
  37   2.0000      -0.336367        -9.1530 
  38   2.0000      -0.325284        -8.8514 
  39   2.0000      -0.318544        -8.6680 
  40   2.0000      -0.299133        -8.1398 
  41   2.0000      -0.276754        -7.5309 
  42   2.0000      -0.251216        -6.8359 
  43   2.0000      -0.246316        -6.7026 
  44   2.0000      -0.237480        -6.4622 
  45   2.0000      -0.194434        -5.2908 
  46   0.0000      -0.050088        -1.3630 
  47   0.0000      -0.017068        -0.4645 
  48   0.0000       0.005739         0.1562 
  49   0.0000       0.029955         0.8151 
  50   0.0000       0.041517         1.1297 
  51   0.0000       0.050140         1.3644 
  52   0.0000       0.061982         1.6866 
  53   0.0000       0.066269         1.8033 
  54   0.0000       0.081917         2.2291 
  55   0.0000       0.087187         2.3725 
  56   0.0000       0.094865         2.5814 
*Only the first 10 virtual orbitals were printed.

                    ********************************
                    * MULLIKEN POPULATION ANALYSIS *
                    ********************************

-----------------------
MULLIKEN ATOMIC CHARGES
-----------------------
   0 O :   -0.217378
   1 O :   -0.526966
   2 O :   -0.560451
   3 O :   -0.549718
   4 O :   -0.570537
   5 O :   -0.377658
   6 C :    0.011812
   7 C :   -0.127811
   8 C :    0.043908
   9 C :   -0.119524
  10 C :    0.244273
  11 C :    0.279226
  12 H :    0.185997
  13 H :    0.175604
  14 H :    0.157248
  15 H :    0.159837
  16 H :    0.440648
  17 H :    0.452950
  18 H :    0.449514
  19 H :    0.449026
Sum of atomic charges:    0.0000000

--------------------------------
MULLIKEN REDUCED ORBITAL CHARGES
--------------------------------
  0 O s       :     3.725899  s :     3.725899
      pz      :     1.628687  p :     4.444000
      px      :     1.625709
      py      :     1.189605
      dz2     :     0.016961  d :     0.047478
      dxz     :     0.012509
      dyz     :     0.003085
      dx2y2   :     0.007010
      dxy     :     0.007912

  1 O s       :     3.796687  s :     3.796687
      pz      :     1.731638  p :     4.689643
      px      :     1.565940
      py      :     1.392066
      dz2     :     0.005738  d :     0.040636
      dxz     :     0.018561
      dyz     :     0.002239
      dx2y2   :     0.013195
      dxy     :     0.000904

  2 O s       :     3.781102  s :     3.781102
      pz      :     1.686506  p :     4.719130
      px      :     1.467450
      py      :     1.565174
      dz2     :     0.009628  d :     0.060219
      dxz     :     0.012918
      dyz     :     0.009898
      dx2y2   :     0.015095
      dxy     :     0.012679

  3 O s       :     3.806305  s :     3.806305
      pz      :     1.647438  p :     4.706068
      px      :     1.354093
      py      :     1.704537
      dz2     :     0.002331  d :     0.037346
      dxz     :     0.015234
      dyz     :     0.004305
      dx2y2   :     0.006342
      dxy     :     0.009133

  4 O s       :     3.787343  s :     3.787343
      pz      :     1.656709  p :     4.732621
      px      :     1.659677
      py      :     1.416236
      dz2     :     0.008532  d :     0.050573
      dxz     :     0.012566
      dyz     :     0.007789
      dx2y2   :     0.012075
      dxy     :     0.009611

  5 O s       :     3.838538  s :     3.838538
      pz      :     1.579234  p :     4.505598
      px      :     1.614620
      py      :     1.311743
      dz2     :     0.006334  d :     0.033523
      dxz     :     0.001898
      dyz     :     0.005908
      dx2y2   :     0.013397
      dxy     :     0.005986

  6 C s       :     3.065356  s :     3.065356
      pz      :     1.050862  p :     2.849216
      px      :     1.008531
      py      :     0.789823
      dz2     :     0.014440  d :     0.073617
      dxz     :     0.014594
      dyz     :     0.012934
      dx2y2   :     0.014807
      dxy     :     0.016841

  7 C s       :     3.155808  s :     3.155808
      pz      :     1.040944  p :     2.896631
      px      :     1.094011
      py      :     0.761677
      dz2     :     0.011291  d :     0.075372
      dxz     :     0.015341
      dyz     :     0.015718
      dx2y2   :     0.016511
      dxy     :     0.016510

  8 C s       :     3.230773  s :     3.230773
      pz      :     0.927451  p :     2.650558
      px      :     0.892709
      py      :     0.830397
      dz2     :     0.009577  d :     0.074762
      dxz     :     0.009514
      dyz     :     0.018094
      dx2y2   :     0.019157
      dxy     :     0.018421

  9 C s       :     3.200807  s :     3.200807
      pz      :     0.981740  p :     2.852163
      px      :     0.814544
      py      :     1.055880
      dz2     :     0.017993  d :     0.066554
      dxz     :     0.014705
      dyz     :     0.007122
      dx2y2   :     0.011709
      dxy     :     0.015026

 10 C s       :     2.947387  s :     2.947387
      pz      :     0.885629  p :     2.736468
      px      :     0.947645
      py      :     0.903194
      dz2     :     0.016523  d :     0.071872
      dxz     :     0.010913
      dyz     :     0.014537
      dx2y2   :     0.013606
      dxy     :     0.016294

 11 C s       :     3.025571  s :     3.025571
      pz      :     0.836064  p :     2.567928
      px      :     0.889607
      py      :     0.842257
      dz2     :     0.015451  d :     0.127275
      dxz     :     0.008137
      dyz     :     0.040145
      dx2y2   :     0.021546
      dxy     :     0.041995

 12 H s       :     0.814003  s :     0.814003

 13 H s       :     0.824396  s :     0.824396

 14 H s       :     0.842752  s :     0.842752

 15 H s       :     0.840163  s :     0.840163

 16 H s       :     0.559352  s :     0.559352

 17 H s       :     0.547050  s :     0.547050

 18 H s       :     0.550486  s :     0.550486

 19 H s       :     0.550974  s :     0.550974



                     *******************************
                     * LOEWDIN POPULATION ANALYSIS *
                     *******************************

----------------------
LOEWDIN ATOMIC CHARGES
----------------------
   0 O :   -0.596178
   1 O :   -0.669534
   2 O :   -0.547119
   3 O :   -0.731660
   4 O :   -0.570140
   5 O :   -0.379949
   6 C :    0.175648
   7 C :    0.129669
   8 C :    0.251548
   9 C :    0.056078
  10 C :    0.217817
  11 C :    0.378217
  12 H :    0.210395
  13 H :    0.198494
  14 H :    0.183884
  15 H :    0.173241
  16 H :    0.374666
  17 H :    0.388927
  18 H :    0.368609
  19 H :    0.387387

-------------------------------
LOEWDIN REDUCED ORBITAL CHARGES
-------------------------------
  0 O s       :     3.436649  s :     3.436649
      pz      :     1.635807  p :     4.614669
      px      :     1.653256
      py      :     1.325607
      dz2     :     0.098845  d :     0.544860
      dxz     :     0.083888
      dyz     :     0.117462
      dx2y2   :     0.125387
      dxy     :     0.119278

  1 O s       :     3.524950  s :     3.524950
      pz      :     1.716259  p :     4.803695
      px      :     1.584006
      py      :     1.503430
      dz2     :     0.044024  d :     0.340889
      dxz     :     0.055396
      dyz     :     0.075665
      dx2y2   :     0.080729
      dxy     :     0.085075

  2 O s       :     3.495664  s :     3.495664
      pz      :     1.637114  p :     4.736456
      px      :     1.507709
      py      :     1.591634
      dz2     :     0.047413  d :     0.314998
      dxz     :     0.057160
      dyz     :     0.066113
      dx2y2   :     0.076454
      dxy     :     0.067859

  3 O s       :     3.529901  s :     3.529901
      pz      :     1.703344  p :     4.829527
      px      :     1.429755
      py      :     1.696427
      dz2     :     0.079431  d :     0.372233
      dxz     :     0.098756
      dyz     :     0.045422
      dx2y2   :     0.059979
      dxy     :     0.088645

  4 O s       :     3.514061  s :     3.514061
      pz      :     1.670205  p :     4.779432
      px      :     1.681046
      py      :     1.428181
      dz2     :     0.065179  d :     0.276647
      dxz     :     0.057174
      dyz     :     0.041872
      dx2y2   :     0.062749
      dxy     :     0.049673

  5 O s       :     3.522838  s :     3.522838
      pz      :     1.558725  p :     4.628849
      px      :     1.586898
      py      :     1.483226
      dz2     :     0.028943  d :     0.228262
      dxz     :     0.014681
      dyz     :     0.059154
      dx2y2   :     0.062974
      dxy     :     0.062510

  6 C s       :     2.790639  s :     2.790639
      pz      :     1.024934  p :     2.887767
      px      :     0.999162
      py      :     0.863672
      dz2     :     0.029019  d :     0.145946
      dxz     :     0.027846
      dyz     :     0.024534
      dx2y2   :     0.030536
      dxy     :     0.034012

  7 C s       :     2.802140  s :     2.802140
      pz      :     1.010217  p :     2.914624
      px      :     1.014778
      py      :     0.889629
      dz2     :     0.024076  d :     0.153567
      dxz     :     0.028105
      dyz     :     0.031873
      dx2y2   :     0.034549
      dxy     :     0.034964

  8 C s       :     2.751426  s :     2.751426
      pz      :     0.946180  p :     2.830997
      px      :     0.929994
      py      :     0.954823
      dz2     :     0.021167  d :     0.166029
      dxz     :     0.020408
      dyz     :     0.036971
      dx2y2   :     0.045585
      dxy     :     0.041897

  9 C s       :     2.851316  s :     2.851316
      pz      :     0.993703  p :     2.959685
      px      :     0.909525
      py      :     1.056457
      dz2     :     0.033839  d :     0.132921
      dxz     :     0.033724
      dyz     :     0.012619
      dx2y2   :     0.023287
      dxy     :     0.029452

 10 C s       :     2.750697  s :     2.750697
      pz      :     0.941464  p :     2.873095
      px      :     0.940499
      py      :     0.991131
      dz2     :     0.031684  d :     0.158391
      dxz     :     0.028073
      dyz     :     0.032387
      dx2y2   :     0.030967
      dxy     :     0.035280

 11 C s       :     2.721789  s :     2.721789
      pz      :     0.811538  p :     2.616423
      px      :     0.838115
      py      :     0.966770
      dz2     :     0.032493  d :     0.283571
      dxz     :     0.020268
      dyz     :     0.087659
      dx2y2   :     0.052578
      dxy     :     0.090573

 12 H s       :     0.789605  s :     0.789605

 13 H s       :     0.801506  s :     0.801506

 14 H s       :     0.816116  s :     0.816116

 15 H s       :     0.826759  s :     0.826759

 16 H s       :     0.625334  s :     0.625334

 17 H s       :     0.611073  s :     0.611073

 18 H s       :     0.631391  s :     0.631391

 19 H s       :     0.612613  s :     0.612613



                      *****************************
                      * MAYER POPULATION ANALYSIS *
                      *****************************

  NA   - Mulliken gross atomic population
  ZA   - Total nuclear charge
  QA   - Mulliken gross atomic charge
  VA   - Mayer's total valence
  BVA  - Mayer's bonded valence
  FA   - Mayer's free valence

  ATOM       NA         ZA         QA         VA         BVA        FA
  0 O      8.2174     8.0000    -0.2174     2.0473     2.0473     0.0000
  1 O      8.5270     8.0000    -0.5270     1.8077     1.8077     0.0000
  2 O      8.5605     8.0000    -0.5605     2.0457     2.0457     0.0000
  3 O      8.5497     8.0000    -0.5497     1.8157     1.8157     0.0000
  4 O      8.5705     8.0000    -0.5705     1.9874     1.9874    -0.0000
  5 O      8.3777     8.0000    -0.3777     2.1959     2.1959    -0.0000
  6 C      5.9882     6.0000     0.0118     3.5149     3.5149     0.0000
  7 C      6.1278     6.0000    -0.1278     3.8635     3.8635     0.0000
  8 C      5.9561     6.0000     0.0439     4.2604     4.2604    -0.0000
  9 C      6.1195     6.0000    -0.1195     3.6673     3.6673     0.0000
 10 C      5.7557     6.0000     0.2443     3.5635     3.5635    -0.0000
 11 C      5.7208     6.0000     0.2792     4.0992     4.0992     0.0000
 12 H      0.8140     1.0000     0.1860     0.9412     0.9412     0.0000
 13 H      0.8244     1.0000     0.1756     0.9378     0.9378     0.0000
 14 H      0.8428     1.0000     0.1572     0.9497     0.9497    -0.0000
 15 H      0.8402     1.0000     0.1598     0.9477     0.9477     0.0000
 16 H      0.5594     1.0000     0.4406     0.8172     0.8172     0.0000
 17 H      0.5470     1.0000     0.4530     0.7748     0.7748    -0.0000
 18 H      0.5505     1.0000     0.4495     0.7639     0.7639     0.0000
 19 H      0.5510     1.0000     0.4490     0.7838     0.7838     0.0000

  Mayer bond orders larger than 0.100000
B(  0-O ,  6-C ) :   0.9725 B(  0-O , 11-C ) :   1.0560 B(  1-O ,  6-C ) :  -0.1348 
B(  1-O ,  7-C ) :   1.1733 B(  1-O , 16-H ) :   0.7218 B(  2-O ,  8-C ) :   1.1368 
B(  2-O , 17-H ) :   0.7370 B(  3-O ,  8-C ) :   0.2844 B(  3-O ,  9-C ) :   0.9584 
B(  3-O , 10-C ) :  -0.1727 B(  3-O , 18-H ) :   0.7463 B(  4-O , 10-C ) :   1.1441 
B(  4-O , 19-H ) :   0.7256 B(  5-O , 11-C ) :   2.0494 B(  6-C ,  7-C ) :   0.7771 
B(  6-C ,  8-C ) :   0.9375 B(  6-C , 12-H ) :   0.9600 B(  7-C ,  9-C ) :   0.9269 
B(  7-C , 13-H ) :   0.9536 B(  8-C , 10-C ) :   1.6075 B(  9-C , 14-H ) :   0.9269 
B(  9-C , 15-H ) :   0.9271 B( 10-C , 11-C ) :   0.8870 


------------------
HIRSHFELD ANALYSIS
------------------

Total integrated alpha density =     45.999998066
Total integrated beta density  =     45.999998066

  ATOM     CHARGE      SPIN    
   0 O   -0.122510    0.000000
   1 O   -0.232936    0.000000
   2 O   -0.150828    0.000000
   3 O   -0.219337    0.000000
   4 O   -0.199132    0.000000
   5 O   -0.293618    0.000000
   6 C    0.060909    0.000000
   7 C    0.060059    0.000000
   8 C    0.058846    0.000000
   9 C    0.021691    0.000000
  10 C    0.013044    0.000000
  11 C    0.176927    0.000000
  12 H    0.050368    0.000000
  13 H    0.047534    0.000000
  14 H    0.026362    0.000000
  15 H    0.026576    0.000000
  16 H    0.139630    0.000000
  17 H    0.193921    0.000000
  18 H    0.168869    0.000000
  19 H    0.173630    0.000000

  TOTAL   0.000004    0.000000

-------
TIMINGS
-------

Total SCF time: 0 days 0 hours 0 min 5 sec 

Total time                  ....       5.731 sec
Sum of individual times     ....       5.652 sec  ( 98.6%)

SCF preparation             ....       0.145 sec  (  2.5%)
Fock matrix formation       ....       4.646 sec  ( 81.1%)
  Startup                   ....       0.013 sec  (  0.3% of F)
  Split-RI-J                ....       0.684 sec  ( 14.7% of F)
  XC integration            ....       3.741 sec  ( 80.5% of F)
    XC Preparation          ....       0.000 sec  (  0.0% of XC)
    Basis function eval.    ....       0.846 sec  ( 22.6% of XC)
    Density eval.           ....       0.784 sec  ( 21.0% of XC)
    XC-Functional eval.     ....       0.097 sec  (  2.6% of XC)
    XC-Potential eval.      ....       0.873 sec  ( 23.3% of XC)
Diagonalization             ....       0.000 sec  (  0.0%)
Density matrix formation    ....       0.043 sec  (  0.7%)
Total Energy calculation    ....       0.024 sec  (  0.4%)
Population analysis         ....       0.409 sec  (  7.1%)
Orbital Transformation      ....       0.032 sec  (  0.6%)
Orbital Orthonormalization  ....       0.000 sec  (  0.0%)
DIIS solution               ....       0.267 sec  (  4.7%)
SOSCF solution              ....       0.086 sec  (  1.5%)
Finished LeanSCF after   5.8 sec

Maximum memory used throughout the entire LEANSCF-calculation: 40.6 MB


           ************************************************************
           *        Program running with 16 parallel MPI-processes    *
           *              working on a common directory               *
           ************************************************************

------------------------------------------------------------------------------
                         ORCA PROPERTY INTEGRAL CALCULATIONS
------------------------------------------------------------------------------

GBWName                                   ... m1_00_Vitamin_C-QM3_01-B97-3C-TZ.gbw
Number of atoms                           ...     20
Number of basis functions                 ...    282
Max core memory                           ...   6000 MB

Dipole integrals                          ... YES
Quadrupole integrals                      ...  NO
Linear momentum integrals                 ...  NO
Angular momentum integrals                ...  NO
Higher moments length integrals           ...  NO
Higher moments velocity integrals         ...  NO
Kinetic energy integrals                  ...  NO
GIAO right hand sides                     ...  NO
GIAO dipole derivative integrals          ...  NO
SOC integrals                             ...  NO
EPR diamagnetic integrals (GIAO)          ...  NO
EPR gauge integrals                       ...  NO
Field gradient integrals                  ...  NO (   0 nuclei)
Spin-dipole/Fermi contact integrals       ...  NO (   0 nuclei)
Contact density integrals                 ...  NO (   0 nuclei)
Nucleus-orbit integrals                   ...  NO (   0 nuclei)
Geometric perturbations                   ...  NO (  20 nuclei)

Choice of electric origin   ... Center of mass
Position of electric origin ... (  0.2191, -0.2839, -0.5267) 
Choice of magnetic origin   ... GIAO
Position of magnetic origin ... (  0.0000,  0.0000,  0.0000) 

Calculating integrals                     ... Electric Dipole (Length)     done (  0.0 sec)

Property integrals calculated in   0.0 sec

Maximum memory used throughout the entire PROPINT-calculation: 16.3 MB


-------------------------------------------------------------------------------
                          DFT DISPERSION CORRECTION                            
                                                                               
                              DFTD3 V3.1  Rev 1                                
                          USING Becke-Johnson damping                          
-------------------------------------------------------------------------------
The B97-3c composite method is recognized
Using three-body term ABC
Active option DFTDOPT                   ...         4   

molecular C6(AA) [au] = 3725.360166 


            DFT-D V3
 parameters
 s6 scaling factor         :     1.0000 
 a1 scaling factor         :     0.3700 
 s8 scaling factor         :     1.5000 
 a2 scaling factor         :     4.1000 
 Damping factor alpha9(ATM):    16.0000 
 ad hoc parameters k1-k3   :    16.0000     1.3333    -4.0000 

 Edisp/kcal,au: -29.662814050343  -0.047270698073 
 E6   /kcal   : -15.224451355 
 E8   /kcal   : -14.527794120 
 E6(ABC)      :   0.089431424 
 % E8         :  48.976452790 
 % E6(ABC)    :  -0.301493392 

-------------------------   ----------------
Dispersion correction           -0.047270698
-------------------------   ----------------

------------------   -----------------
SRB correction            -0.059819489
------------------   -----------------

-------------------------   --------------------
FINAL SINGLE POINT ENERGY      -684.489075352385
-------------------------   --------------------



           ************************************************************
           *        Program running with 16 parallel MPI-processes    *
           *              working on a common directory               *
           ************************************************************
------------------------------------------------------------------------------
                         ORCA SCF GRADIENT CALCULATION
------------------------------------------------------------------------------

Nuc. rep. gradient        (SHARK) ... done (  0.0 sec)
HCore & Overlap gradient  (SHARK) ... done (  0.0 sec)
Split-RIJ-J gradient      (SHARK) ... done (  0.1 sec)
XC gradient                       ... done (  1.8 sec)
Dispersion correction             ... done (  0.1 sec)

-------------------
DISPERSION GRADIENT
-------------------

   1   O   :    0.000815420   -0.000443059   -0.000122908
   2   O   :    0.000117258    0.000932128    0.000484682
   3   O   :   -0.000429021    0.000787560   -0.000795616
   4   O   :   -0.001105005   -0.000172862    0.000767469
   5   O   :   -0.000472402   -0.000382224   -0.000692024
   6   O   :    0.000360794   -0.000895082   -0.000044127
   7   C   :    0.000859995    0.000308331   -0.000118586
   8   C   :    0.000390860    0.000565853    0.000857368
   9   C   :    0.000041279    0.000430490   -0.001059303
  10   C   :   -0.000468377   -0.000098681    0.001275178
  11   C   :   -0.000089424   -0.000592777   -0.001121397
  12   C   :    0.000588186   -0.001070851   -0.000529361
  13   H   :    0.000618631    0.000303519   -0.000124638
  14   H   :    0.000374411    0.000179773    0.000427036
  15   H   :   -0.000143805   -0.000328679    0.000660613
  16   H   :   -0.000161929   -0.000079103    0.000458680
  17   H   :   -0.000184378    0.000660320    0.000119673
  18   H   :   -0.000322844    0.000347558   -0.000381308
  19   H   :   -0.000564396   -0.000194633    0.000249242
  20   H   :   -0.000225253   -0.000257581   -0.000310675

Difference to translation invariance:
           :   -0.0000000000    0.0000000000    0.0000000000

Difference to rotation invariance:
           :   -0.0000000000    0.0000000000   -0.0000000000

Norm of the Dispersion gradient    ...    0.0043363097
RMS gradient                       ...    0.0005598152
MAX gradient                       ...    0.0012751779
SRB correction                   ... done

------------------
CARTESIAN GRADIENT
------------------

   1   O   :   -0.025925674    0.007743218   -0.017254484
   2   O   :   -0.001741084   -0.017347626   -0.004444170
   3   O   :    0.004435533   -0.013581832    0.003671151
   4   O   :    0.016987642   -0.001767329    0.004815236
   5   O   :    0.001446640   -0.002548084   -0.000933751
   6   O   :   -0.006617943    0.024848297   -0.000445251
   7   C   :   -0.000790895   -0.011806112    0.010278671
   8   C   :   -0.003408018    0.007837044   -0.009183889
   9   C   :   -0.000969607    0.009737749    0.011660775
  10   C   :   -0.008011724    0.008658845   -0.018899757
  11   C   :   -0.012420966    0.011156471   -0.002090530
  12   C   :    0.028196649   -0.024190877    0.021049613
  13   H   :    0.000502189    0.001804345   -0.001686686
  14   H   :    0.005444000   -0.001406781    0.001454265
  15   H   :   -0.000438177   -0.000112926    0.000514519
  16   H   :   -0.000598558   -0.000804950    0.000513007
  17   H   :    0.002333962   -0.000968083    0.000565799
  18   H   :    0.001597010   -0.000107022    0.000486562
  19   H   :   -0.000540475   -0.000634900   -0.001115853
  20   H   :    0.000519497    0.003490553    0.001044774

Difference to translation invariance:
           :   -0.0000000000   -0.0000000000   -0.0000000000

Difference to rotation invariance:
           :   -0.0000102037    0.0000080484    0.0000290542

Norm of the Cartesian gradient     ...    0.0765593932
RMS gradient                       ...    0.0098837752
MAX gradient                       ...    0.0281966489

-------
TIMINGS
-------

Total SCF gradient time     ....        2.079 sec

Densities                   ....       0.001 sec  (  0.1%)
One electron gradient       ....       0.046 sec  (  2.2%)
RI-J Coulomb gradient       ....       0.128 sec  (  6.1%)
XC gradient                 ....       1.834 sec  ( 88.2%)

Maximum memory used throughout the entire SCFGRAD-calculation: 49.0 MB
------------------------------------------------------------------------------
                         ORCA GEOMETRY RELAXATION STEP
------------------------------------------------------------------------------

Reading the OPT-File                    .... done
Getting information on internals        .... done
Copying old internal coords+grads       .... done
Making the new internal coordinates     .... (2022 redundants) done
Validating the new internal coordinates .... (2022 redundants) done
Calculating the B-matrix                .... done
Calculating the G,G- and P matrices     .... done
Transforming gradient to internals      .... done
Projecting the internal gradient        .... done
Number of atoms                         ....  20
Number of internal coordinates          ....  94
Current Energy                          ....  -684.489075352 Eh
Current gradient norm                   ....     0.076559393 Eh/bohr
Maximum allowed component of the step   ....  0.300
Current trust radius                    ....  0.300
Evaluating the initial hessian          ....  (Almloef) done
Projecting the Hessian                  .... done
Forming the augmented Hessian           .... done
Diagonalizing the augmented Hessian     .... done
Last element of RFO vector              ....  0.936486282
Lowest eigenvalues of augmented Hessian:
 -0.014869505  0.011311126  0.014213948  0.016434672  0.020153253
Length of the computed step             ....  0.374489426
Warning: the length of the step is outside the trust region - taking restricted step instead
The input lambda is                     ....     0.010225
   iter:   5  x=   -0.004281  g=   68.400029 f(x)=     0.407721
   iter:  10  x=   -0.027084  g=    2.642971 f(x)=     0.000104
The output lambda is                    ....    -0.027084 (13 iterations)
The final length of the internal step   ....  0.300000000
Converting the step to Cartesian space:
 Initial RMS(Int)=    0.0309426374
Transforming coordinates:
 Iter   0:  RMS(Cart)=    0.1696706559 RMS(Int)=    0.0312749161
 Iter   5:  RMS(Cart)=    0.0000013426 RMS(Int)=    0.0000008149
done
Storing new coordinates                 .... done

                                .--------------------.
          ----------------------|Geometry convergence|-------------------------
          Item                value                   Tolerance       Converged
          ---------------------------------------------------------------------
          RMS gradient        0.0071656495            0.0000300000      NO
          MAX gradient        0.0250436769            0.0001000000      NO
          RMS step            0.0309426374            0.0020000000      NO
          MAX step            0.1345962986            0.0040000000      NO
          ........................................................
          Max(Bonds)      0.0712      Max(Angles)    4.37
          Max(Dihed)        5.20      Max(Improp)    0.00
          ---------------------------------------------------------------------

The optimization has not yet converged - more geometry cycles are needed


    ---------------------------------------------------------------------------
                         Redundant Internal Coordinates
                            (Angstroem and degrees)

        Definition                    Value    dE/dq     Step     New-Value
    ----------------------------------------------------------------------------
     1. B(C   6,O   0)                1.4083 -0.016333  0.0154    1.4237   
     2. B(C   7,O   1)                1.3891 -0.015852  0.0146    1.4037   
     3. B(C   7,C   6)                1.5117 -0.022775  0.0298    1.5415   
     4. B(C   8,O   2)                1.3326 -0.015615  0.0115    1.3441   
     5. B(C   8,C   6)                1.4794 -0.008974  0.0099    1.4894   
     6. B(C   9,C   7)                1.5060 -0.013636  0.0166    1.5226   
     7. B(C   9,O   3)                1.3981 -0.015467  0.0144    1.4125   
     8. B(C  10,C   8)                1.3297 -0.006834  0.0044    1.3341   
     9. B(C  10,O   4)                1.3519 -0.001162  0.0012    1.3532   
    10. B(C  11,C  10)                1.4702  0.009860 -0.0092    1.4610   
    11. B(C  11,O   5)                1.1959 -0.025044  0.0114    1.2073   
    12. B(C  11,O   0)                1.3403 -0.021433  0.0167    1.3570   
    13. B(H  12,C   6)                1.0956  0.001951 -0.0027    1.0928   
    14. B(H  13,C   7)                1.0998  0.005233 -0.0074    1.0924   
    15. B(H  14,C   9)                1.0948 -0.000013  0.0000    1.0948   
    16. B(H  15,C   9)                1.0967  0.000361 -0.0005    1.0962   
    17. B(H  16,O   2)                2.1171 -0.005970  0.0712    2.1883   
    18. B(H  16,O   1)                0.9634 -0.005898  0.0050    0.9684   
    19. B(H  17,O   2)                0.9647 -0.001469  0.0014    0.9661   
    20. B(H  18,O   3)                0.9618  0.000474 -0.0005    0.9613   
    21. B(H  19,O   5)                2.4480 -0.000669  0.0029    2.4509   
    22. B(H  19,O   4)                0.9663 -0.003608  0.0034    0.9697   
    23. A(C   6,O   0,C  11)          111.16  0.008365   -1.05    110.11   
    24. A(C   7,O   1,H  16)          107.92  0.003138   -0.30    107.62   
    25. A(C   8,O   2,H  17)          108.66 -0.001050    0.15    108.81   
    26. A(C   9,O   3,H  18)          109.62  0.001768   -0.26    109.35   
    27. A(C  10,O   4,H  19)          105.82 -0.001426    0.33    106.15   
    28. A(O   0,C   6,C   8)          104.36  0.001363    0.02    104.38   
    29. A(C   7,C   6,C   8)          112.82 -0.007618    2.51    115.33   
    30. A(O   0,C   6,H  12)          109.22  0.001249   -1.01    108.22   
    31. A(C   8,C   6,H  12)          110.86  0.001875   -0.83    110.03   
    32. A(O   0,C   6,C   7)          110.68 -0.002322    0.84    111.52   
    33. A(C   7,C   6,H  12)          108.81  0.005383   -1.53    107.28   
    34. A(C   6,C   7,C   9)          111.73 -0.022142    4.37    116.10   
    35. A(C   9,C   7,H  13)          108.46  0.006149   -1.81    106.65   
    36. A(C   6,C   7,H  13)          107.46  0.004686   -1.37    106.09   
    37. A(O   1,C   7,H  13)          108.04 -0.000567   -1.19    106.85   
    38. A(O   1,C   7,C   6)          109.20  0.010398   -0.58    108.62   
    39. A(O   1,C   7,C   9)          111.79  0.002176    0.32    112.11   
    40. A(O   2,C   8,C   6)          121.11  0.008936   -0.82    120.30   
    41. A(C   6,C   8,C  10)          109.07 -0.001807   -0.01    109.06   
    42. A(O   2,C   8,C  10)          129.80 -0.007119    0.83    130.63   
    43. A(H  14,C   9,H  15)          107.15  0.000608   -0.52    106.64   
    44. A(O   3,C   9,H  15)          111.28  0.001996   -0.60    110.68   
    45. A(C   7,C   9,H  14)          109.53  0.003029   -0.16    109.36   
    46. A(O   3,C   9,H  14)          111.70  0.000610    0.49    112.19   
    47. A(O   3,C   9,C   7)          109.00 -0.010395    1.66    110.66   
    48. A(C   7,C   9,H  15)          108.10  0.004595   -0.96    107.14   
    49. A(C   8,C  10,C  11)          108.01 -0.002780    0.31    108.33   
    50. A(O   4,C  10,C  11)          122.72  0.001294   -0.06    122.66   
    51. A(O   4,C  10,C   8)          129.23  0.001505   -0.28    128.96   
    52. A(O   0,C  11,O   5)          126.09  0.007512   -0.99    125.11   
    53. A(O   5,C  11,C  10)          126.55 -0.002465    0.27    126.82   
    54. A(O   0,C  11,C  10)          107.35 -0.005056    0.72    108.07   
    55. D(C   7,C   6,O   0,C  11)    119.69 -0.007373    3.37    123.06   
    56. D(C   8,C   6,O   0,C  11)     -1.95  0.002145   -0.08     -2.04   
    57. D(H  12,C   6,O   0,C  11)   -120.54 -0.001369    1.36   -119.18   
    58. D(C   9,C   7,C   6,H  12)   -176.46 -0.004150    2.74   -173.72   
    59. D(O   1,C   7,C   6,C   8)    -64.12 -0.000192    0.19    -63.93   
    60. D(C   9,C   7,C   6,C   8)     60.07 -0.005256    3.21     63.28   
    61. D(C   9,C   7,O   1,H  16)    -61.46  0.010982   -4.05    -65.51   
    62. D(H  13,C   7,O   1,H  16)    179.28  0.002473   -1.25    178.03   
    63. D(C   6,C   7,O   1,H  16)     62.70 -0.008378    1.34     64.04   
    64. D(O   1,C   7,C   6,O   0)    179.37  0.004438   -1.97    177.40   
    65. D(O   1,C   7,C   6,H  12)     59.34  0.000913   -0.27     59.07   
[...]
     27      -0.001409  -0.002049   0.000024  -0.000366   0.000030   0.000461
     28       0.004119   0.006096  -0.000038   0.000380  -0.000003  -0.000928
     29      -0.002259   0.016163   0.000044  -0.000188   0.000029   0.001765
     30      -0.000114  -0.000319  -0.000253  -0.000022  -0.001195   0.000015
     31      -0.000729  -0.000276   0.002508  -0.000043   0.000536  -0.000016
     32      -0.000400  -0.000415   0.000592  -0.000037  -0.000879  -0.000011
     33      -0.000291   0.000132   0.000094  -0.000130   0.000721   0.000011
     34      -0.001005  -0.000591  -0.002150  -0.000152  -0.000416   0.000053
     35      -0.000533  -0.000094  -0.000597  -0.000112   0.000502   0.000051
     36      -0.631117  -0.350409  -0.001008   0.000441   0.000443   0.000117
     37      -0.548484  -0.300868   0.000176   0.000311   0.000700  -0.000006
     38       0.233688   0.130771  -0.000039  -0.000423  -0.000216  -0.000193
     39       0.392365  -0.690469  -0.000285  -0.010982   0.000587   0.000157
     40      -0.044291   0.072727  -0.000183   0.001703  -0.000141  -0.000593
     41       0.280120  -0.494969  -0.000683  -0.009066   0.000499   0.000662
     42       0.011424   0.010841  -0.000051   0.002989  -0.000212   0.002088
     43      -0.058043  -0.040663   0.000249  -0.000422  -0.000191  -0.001267
     44      -0.007745  -0.004368   0.000098   0.000848   0.000105   0.001513
     45      -0.002436   0.014529   0.000048   0.000454   0.000060   0.004229
     46       0.006868  -0.033257  -0.000023  -0.000313  -0.000073  -0.000593
     47       0.035321  -0.178927  -0.000340   0.001173  -0.000425  -0.002550
     48      -0.006890   0.011293  -0.000299  -0.929153   0.045082   0.006569
     49      -0.003251   0.007459   0.000175   0.091153  -0.004101  -0.000062
     50      -0.004563   0.008153   0.000232  -0.349189   0.016926   0.003323
     51      -0.000397  -0.000263   0.008128  -0.034954  -0.716294   0.001277
     52      -0.001042  -0.000617   0.002839  -0.011739  -0.249491   0.000391
     53      -0.000266  -0.000053   0.007238  -0.030850  -0.646781   0.001201
     54       0.000190  -0.000436   0.000298   0.005997   0.000902   0.755789
     55      -0.000016  -0.000833   0.000150   0.001372   0.000765   0.395363
     56       0.000054   0.000014  -0.000258  -0.004254  -0.000991  -0.518103
     57      -0.000173  -0.000216   0.224827  -0.000019   0.002573  -0.000019
     58       0.000353   0.000943  -0.963529  -0.000308  -0.010921   0.000416
     59      -0.000138  -0.000056  -0.130703  -0.000088  -0.001741   0.000133


-----------
IR SPECTRUM
-----------

 Mode   freq       eps      Int      T**2         TX        TY        TZ
       cm**-1   L/(mol*cm) km/mol    a.u.
----------------------------------------------------------------------------
  6:     61.72   0.000456    2.30  0.002306  (-0.043836  0.002350  0.019454)
  7:     76.28   0.000235    1.19  0.000961  (-0.029114 -0.010015 -0.003602)
  8:    116.55   0.000224    1.13  0.000599  ( 0.020051 -0.012953 -0.005393)
  9:    140.16   0.000250    1.26  0.000557  (-0.005537 -0.003647 -0.022642)
 10:    166.71   0.000974    4.92  0.001824  (-0.008160  0.008429  0.041060)
 11:    190.74   0.017850   90.20  0.029203  (-0.022717  0.127655  0.111317)
 12:    227.27   0.001200    6.06  0.001647  (-0.020857 -0.032214 -0.013201)
 13:    239.30   0.001202    6.07  0.001568  (-0.013067 -0.014993 -0.034234)
 14:    295.81   0.000791    4.00  0.000834  ( 0.011503  0.004969 -0.026021)
 15:    312.96   0.002003   10.12  0.001997  (-0.019514  0.012117 -0.038338)
 16:    332.21   0.001568    7.92  0.001473  ( 0.026107 -0.006476  0.027375)
 17:    372.63   0.000272    1.37  0.000228  ( 0.004846 -0.002362 -0.014097)
 18:    386.66   0.022821  115.33  0.018418  (-0.087272 -0.046926  0.092735)
 19:    415.95   0.008122   41.04  0.006093  ( 0.040246  0.002929 -0.066821)
 20:    435.47   0.022276  112.57  0.015963  (-0.050783 -0.015593  0.114633)
 21:    492.15   0.012047   60.88  0.007639  ( 0.051524 -0.004177 -0.070474)
 22:    561.31   0.000244    1.23  0.000136  ( 0.002429 -0.003286  0.010914)
 23:    585.81   0.000731    3.70  0.000390  ( 0.002247  0.002786  0.019412)
 24:    626.81   0.004191   21.18  0.002087  ( 0.044359 -0.009651  0.005085)
 25:    681.18   0.001072    5.42  0.000491  (-0.000977 -0.020986 -0.007036)
 26:    738.63   0.001430    7.22  0.000604  (-0.001728 -0.013592  0.020402)
 27:    748.04   0.002073   10.47  0.000865  (-0.027262  0.008580  0.006916)
 28:    799.59   0.000372    1.88  0.000145  ( 0.009574  0.002675  0.006819)
 29:    833.44   0.001665    8.42  0.000624  ( 0.004780 -0.015542 -0.018952)
 30:    958.52   0.005959   30.11  0.001940  (-0.029498  0.032110 -0.006228)
 31:    985.81   0.003603   18.21  0.001140  (-0.019350 -0.027015 -0.006018)
 32:   1015.01   0.016568   83.73  0.005094  (-0.009460  0.065190  0.027471)
 33:   1050.37   0.006034   30.50  0.001793  (-0.031041 -0.018822 -0.021794)
 34:   1094.88   0.013270   67.06  0.003782  ( 0.038303 -0.003417  0.047994)
 35:   1103.49   0.021277  107.53  0.006017  ( 0.003505 -0.067289 -0.038431)
 36:   1131.76   0.035013  176.94  0.009654  (-0.072658  0.001159 -0.066133)
 37:   1174.69   0.017938   90.65  0.004765  (-0.001968  0.067072  0.016210)
 38:   1200.06   0.005153   26.04  0.001340  ( 0.026938  0.012940  0.021139)
 39:   1245.65   0.002678   13.53  0.000671  (-0.005553 -0.021193 -0.013817)
 40:   1291.85   0.003978   20.10  0.000961  (-0.019805 -0.016624 -0.017097)
 41:   1302.08   0.002792   14.11  0.000669  (-0.021867 -0.009466 -0.010063)
 42:   1318.99   0.031901  161.22  0.007548  ( 0.051464 -0.059178  0.037376)
 43:   1332.88   0.022054  111.45  0.005164  ( 0.014078 -0.068821 -0.015132)
 44:   1360.68   0.009729   49.17  0.002231  (-0.010151 -0.033636 -0.031574)
 45:   1396.54   0.002086   10.54  0.000466  (-0.018016 -0.003149 -0.011470)
 46:   1427.48   0.006206   31.36  0.001357  (-0.001428  0.036798 -0.000723)
 47:   1446.45   0.007548   38.14  0.001628  ( 0.004205  0.038821  0.010179)
 48:   1461.77   0.005959   30.11  0.001272  (-0.007871 -0.030145 -0.017362)
 49:   1510.34   0.002254   11.39  0.000466  (-0.013636 -0.012024  0.011629)
 50:   1743.57   0.093616  473.10  0.016755  ( 0.054770 -0.117157  0.005471)
 51:   1799.65   0.050244  253.91  0.008712  ( 0.000102 -0.084774 -0.039061)
 52:   2975.44   0.007514   37.97  0.000788  (-0.007337  0.012787 -0.023890)
 53:   3015.25   0.006369   32.19  0.000659  ( 0.008649 -0.016952 -0.017233)
 54:   3018.68   0.003777   19.09  0.000390  ( 0.000288  0.018140 -0.007831)
 55:   3028.88   0.006652   33.62  0.000685  ( 0.019186  0.006926  0.016411)
 56:   3670.70   0.015472   78.19  0.001315  ( 0.006188 -0.034817 -0.008054)
 57:   3710.25   0.007366   37.23  0.000620  (-0.023303  0.007630 -0.004280)
 58:   3723.65   0.011947   60.38  0.001001  (-0.023588  0.010202 -0.018461)
 59:   3782.29   0.006575   33.23  0.000542  ( 0.021349  0.005548 -0.007479)

* The epsilon (eps) is given for a Dirac delta lineshape.
** The dipole moment derivative (T) already includes vibrational overlap.

The first frequency considered to be a vibration is 6
The total number of vibrations considered is 54


--------------------------
THERMOCHEMISTRY AT 298.15K
--------------------------

Temperature         ...   298.15 K
Pressure            ...     1.00 atm
Total Mass          ...   176.12 AMU
Quasi RRHO          ...     True
Cut-Off Frequency   ...     1.00 cm^-1

Throughout the following assumptions are being made:
  (1) The electronic state is orbitally nondegenerate
  (2) There are no thermally accessible electronically excited states
  (3) Hindered rotations indicated by low frequency modes are not
      treated as such but are treated as vibrations and this may
      cause some error
  (4) All equations used are the standard statistical mechanics
      equations for an ideal gas
  (5) All vibrations are strictly harmonic

freq.      61.72  E(vib)   ...       0.51 
freq.      76.28  E(vib)   ...       0.49 
freq.     116.55  E(vib)   ...       0.44 
freq.     140.16  E(vib)   ...       0.41 
freq.     166.71  E(vib)   ...       0.39 
freq.     190.74  E(vib)   ...       0.36 
freq.     227.27  E(vib)   ...       0.33 
freq.     239.30  E(vib)   ...       0.31 
freq.     295.81  E(vib)   ...       0.27 
freq.     312.96  E(vib)   ...       0.25 
freq.     332.21  E(vib)   ...       0.24 
freq.     372.63  E(vib)   ...       0.21 
freq.     386.66  E(vib)   ...       0.20 
freq.     415.95  E(vib)   ...       0.18 
freq.     435.47  E(vib)   ...       0.17 
freq.     492.15  E(vib)   ...       0.14 
freq.     561.31  E(vib)   ...       0.11 
freq.     585.81  E(vib)   ...       0.11 
freq.     626.81  E(vib)   ...       0.09 
freq.     681.18  E(vib)   ...       0.08 
freq.     738.63  E(vib)   ...       0.06 
freq.     748.04  E(vib)   ...       0.06 
freq.     799.59  E(vib)   ...       0.05 
freq.     833.44  E(vib)   ...       0.04 
freq.     958.52  E(vib)   ...       0.03 
freq.     985.81  E(vib)   ...       0.02 
freq.    1015.01  E(vib)   ...       0.02 
freq.    1050.37  E(vib)   ...       0.02 
freq.    1094.88  E(vib)   ...       0.02 
freq.    1103.49  E(vib)   ...       0.02 
freq.    1131.76  E(vib)   ...       0.01 
freq.    1174.69  E(vib)   ...       0.01 
freq.    1200.06  E(vib)   ...       0.01 
freq.    1245.65  E(vib)   ...       0.01 
freq.    1291.85  E(vib)   ...       0.01 
freq.    1302.08  E(vib)   ...       0.01 
freq.    1318.99  E(vib)   ...       0.01 
freq.    1332.88  E(vib)   ...       0.01 
freq.    1360.68  E(vib)   ...       0.01 
freq.    1396.54  E(vib)   ...       0.00 
freq.    1427.48  E(vib)   ...       0.00 
freq.    1446.45  E(vib)   ...       0.00 
freq.    1461.77  E(vib)   ...       0.00 
freq.    1510.34  E(vib)   ...       0.00 
freq.    1743.57  E(vib)   ...       0.00 
freq.    1799.65  E(vib)   ...       0.00 
freq.    2975.44  E(vib)   ...       0.00 
freq.    3015.25  E(vib)   ...       0.00 
freq.    3018.68  E(vib)   ...       0.00 
freq.    3028.88  E(vib)   ...       0.00 
freq.    3670.70  E(vib)   ...       0.00 
freq.    3710.25  E(vib)   ...       0.00 
freq.    3723.65  E(vib)   ...       0.00 
freq.    3782.29  E(vib)   ...       0.00 

------------
INNER ENERGY
------------

The inner energy is: U= E(el) + E(ZPE) + E(vib) + E(rot) + E(trans)
    E(el)   - is the total energy from the electronic structure calculation
              = E(kin-el) + E(nuc-el) + E(el-el) + E(nuc-nuc)
    E(ZPE)  - the the zero temperature vibrational energy from the frequency calculation
    E(vib)  - the the finite temperature correction to E(ZPE) due to population
              of excited vibrational states
    E(rot)  - is the rotational thermal energy
    E(trans)- is the translational thermal energy

Summary of contributions to the inner energy U:
Electronic energy                ...   -684.49757943 Eh
Zero point energy                ...      0.14834294 Eh      93.09 kcal/mol
Thermal vibrational correction   ...      0.00914962 Eh       5.74 kcal/mol
Thermal rotational correction    ...      0.00141627 Eh       0.89 kcal/mol
Thermal translational correction ...      0.00141627 Eh       0.89 kcal/mol
-----------------------------------------------------------------------
Total thermal energy                   -684.33725432 Eh


Summary of corrections to the electronic energy:
(perhaps to be used in another calculation)
Total thermal correction                  0.01198216 Eh       7.52 kcal/mol
Non-thermal (ZPE) correction              0.14834294 Eh      93.09 kcal/mol
-----------------------------------------------------------------------
Total correction                          0.16032511 Eh     100.61 kcal/mol


--------
ENTHALPY
--------

The enthalpy is H = U + kB*T
                kB is Boltzmann's constant
Total thermal energy              ...   -684.33725432 Eh 
Thermal Enthalpy correction       ...      0.00094421 Eh       0.59 kcal/mol
-----------------------------------------------------------------------
Total Enthalpy                    ...   -684.33631011 Eh


Note: Only C1 symmetry has been detected, increase convergence thresholds 
      if your molecule has a higher symmetry. Symmetry factor of 1.0 is   
      used for the rotational entropy correction. 
 

Note: Rotational entropy computed according to Herzberg 
Infrared and Raman Spectra, Chapter V,1, Van Nostrand Reinhold, 1945 
Point Group:  C1, Symmetry Number:   1  
Rotational constants in cm-1:     0.047484     0.025561     0.022302 

Vibrational entropy computed according to the QRRHO of S. Grimme
Chem.Eur.J. 2012 18 9955 using a reference frequency of 100.0 cm-1


-------
ENTROPY
-------

The entropy contributions are T*S = T*(S(el)+S(vib)+S(rot)+S(trans))
     S(el)   - electronic entropy
     S(vib)  - vibrational entropy
     S(rot)  - rotational entropy
     S(trans)- translational entropy
The entropies will be listed as multiplied by the temperature to get
units of energy

Electronic entropy                ...      0.00000000 Eh      0.00 kcal/mol
Vibrational entropy               ...      0.01569661 Eh      9.85 kcal/mol
Rotational entropy                ...      0.01447584 Eh      9.08 kcal/mol
Translational entropy             ...      0.01967288 Eh     12.34 kcal/mol
-----------------------------------------------------------------------
Final entropy term                ...      0.04984533 Eh     31.28 kcal/mol

In case the symmetry of your molecule has not been determined correctly
or in case you have a reason to use a different symmetry number we print 
out the resulting rotational entropy values for sn=1,12:

 non-linear molecules -----------------------------------
|  sn= 1 | S(rot)=       0.01447584 Eh      9.08 kcal/mol|
|  sn= 2 | S(rot)=       0.01382138 Eh      8.67 kcal/mol|
|  sn= 3 | S(rot)=       0.01343855 Eh      8.43 kcal/mol|
|  sn= 4 | S(rot)=       0.01316693 Eh      8.26 kcal/mol|
|  sn= 5 | S(rot)=       0.01295624 Eh      8.13 kcal/mol|
|  sn= 6 | S(rot)=       0.01278410 Eh      8.02 kcal/mol|
|  sn= 7 | S(rot)=       0.01263855 Eh      7.93 kcal/mol|
|  sn= 8 | S(rot)=       0.01251247 Eh      7.85 kcal/mol|
|  sn= 9 | S(rot)=       0.01240126 Eh      7.78 kcal/mol|
|  sn=10 | S(rot)=       0.01230178 Eh      7.72 kcal/mol|
|  sn=11 | S(rot)=       0.01221179 Eh      7.66 kcal/mol|
|  sn=12 | S(rot)=       0.01212964 Eh      7.61 kcal/mol|
 linear molecules ---------------------------------------
|  Dinfh | S(rot)=       0.00891660 Eh      5.60 kcal/mol|
|  Cinfv | S(rot)=       0.00957105 Eh      6.01 kcal/mol|
 --------------------------------------------------------


-------------------
GIBBS FREE ENERGY
-------------------

The Gibbs free energy is G = H - T*S

Total enthalpy                    ...   -684.33631011 Eh 
Total entropy correction          ...     -0.04984533 Eh    -31.28 kcal/mol
-----------------------------------------------------------------------
Final Gibbs free energy         ...   -684.38615544 Eh

For completeness - the Gibbs free energy minus the electronic energy
G-E(el)                           ...      0.11142399 Eh     69.92 kcal/mol


Maximum memory used throughout the entire PROP-calculation: 67.2 MB

--------------------------------
SUGGESTED CITATIONS FOR THIS RUN
--------------------------------

Below you find a list of papers that are relevant to this ORCA run
We neither can nor want to force you to cite these papers, but we appreciate if you do
You receive ORCA, which is the product of decades of hard work by many enthusiastic individuals, for free
The only thing we kindly ask in return is that you cite our papers,
We deeply appreciate it, if you show your appreciation for ORCA by not just citing the generic ORCA reference.

Please note that relegating all ORCA citations to the supporting information does *not* help us.
SI sections are not indexed - citations you put there will not count into any citation statistics
But we need these citations in order to attract the funding resources that allow us to do what we are doing

Therefore, if you are a happy ORCA user, please consider citing a few of the papers listed below in the main body of your paper

In addition to the list printed below, the program has created the file m1_00_Vitamin_C-QM3_01-B97-3C-TZ.bibtex that contains the list in bibtex format
You can import this file easily into all common literature databanks and citation aid programs


List of essential papers. We consider these as the minimum necessary citations

  1. Neese,F.
     Software update: the ORCA program system, version 5.0
     WIRES Comput. Molec. Sci., 2022 12(1)e1606
     doi.org/10.1002/wcms.1606

List of papers to cite with high priority. The work reported in these papers was absolutely
necessary for this run to complete.
Our perspective: the developers of density functionals and basis sets usually get cited in chemistry papers
Good! But without the algorithms to do something with them, the functionals or basis sets would not do anything.
Hence, in our opinion, the algorithm design and method developments papers are equally worthy of getting cited

  1. Neese,F.
     An improvement of the resolution of the identity approximation for the formation of the Coulomb matrix
     J. Comp. Chem., 2003 24(14)1740-1747
     doi.org/10.1002/jcc.10318
  2. Bykov,D.; Petrenko,T.; Izsak,R.; Kossmann,S.; Becker,U.; Valeev,E.; Neese,F.
     Efficient implementation of the analytic second derivatives of Hartree-Fock and hybrid DFT energies: a detailed analysis of different approximations
     Molec. Phys., 2015 113 1961-1977
     doi.org/10.1080/00268976.2015.1025114
  3. Neese,F.
     The SHARK Integral Generation and Digestion System
     J. Comp. Chem., 2022  1-16
     doi.org/10.1002/jcc.26942
  4. Grimme,S.; Antony,J.; Ehrlich,S.; Krieg,H.
     A consistent and accurate ab initio parametrization of density functional dispersion correction (DFT-D) for the 94 elements H-Pu
     J. Chem. Phys., 2010 132 154104
     doi.org/10.1063/1.3382344
  5. Grimme,S.; Ehrlich,S.; Goerigk,L.
     Effect of the damping function in dispersion corrected density functional theory
     J. Comput. Chem., 2011 32(7)1456-1465
     doi.org/10.1002/jcc.21759

List of suggested additional citations. These are papers that are important in the 'surrounding' of 
of this run, or papers that preceded the highly important papers. If you like your results we are grateful for a citation.

  1. Neese,F.
     The ORCA program system
     WIRES Comput. Molec. Sci., 2012 2(1)73-78
     doi.org/10.1002/wcms.81
  2. Neese,F.
     Software update: the ORCA program system, version 4.0
     WIRES Comput. Molec. Sci., 2018 8(1)1-6
     doi.org/10.1002/wcms.1327
  3. Neese,F.; Wennmohs,F.; Becker,U.; Riplinger,C.
     The ORCA quantum chemistry program package
     J. Chem. Phys., 2020 152 Art. No. L224108
     doi.org/10.1063/5.0004608

List of optional additional citations

  1. Neese,F.
     Approximate second-order SCF convergence for spin unrestricted wavefunctions
     Chem. Phys. Lett., 2000 325(1-3)93-98
     doi.org/10.1016/s0009-2614(00)00662-x

Timings for individual modules:

Sum of individual times          ...      209.115 sec (=   3.485 min)
Startup calculation              ...       36.165 sec (=   0.603 min)  17.3 %
SCF iterations                   ...       60.738 sec (=   1.012 min)  29.0 %
Property integrals               ...       36.283 sec (=   0.605 min)  17.4 %
SCF Response                     ...       24.294 sec (=   0.405 min)  11.6 %
Property calculations            ...       14.849 sec (=   0.247 min)   7.1 %
SCF Gradient evaluation          ...       36.717 sec (=   0.612 min)  17.6 %
Geometry relaxation              ...        0.069 sec (=   0.001 min)   0.0 %
                             ****ORCA TERMINATED NORMALLY****
TOTAL RUN TIME: 0 days 0 hours 3 minutes 32 seconds 510 msec
