
                                 *****************
                                 * O   R   C   A *
                                 *****************

                                            #,                                       
                                            ###                                      
                                            ####                                     
                                            #####                                    
                                            ######                                   
                                           ########,                                 
                                     ,,################,,,,,                         
                               ,,#################################,,                 
                          ,,##########################################,,             
                       ,#########################################, ''#####,          
                    ,#############################################,,   '####,        
                  ,##################################################,,,,####,       
                ,###########''''           ''''###############################       
              ,#####''   ,,,,##########,,,,          '''####'''          '####       
            ,##' ,,,,###########################,,,                        '##       
           ' ,,###''''                  '''############,,,                           
         ,,##''                                '''############,,,,        ,,,,,,###''
      ,#''                                            '''#######################'''  
     '                                                          ''''####''''         
             ,#######,   #######,   ,#######,      ##                                
            ,#'     '#,  ##    ##  ,#'     '#,    #''#        ,####,   ,####,        
            ##       ##  ##   ,#'  ##            #'  '#       #'       #'  '#        
            ##       ##  #######   ##           ,######,      #####,   #    #        
            '#,     ,#'  ##    ##  '#,     ,#' ,#      #,     #,   #   #,  ,#        
             '#######'   ##     ##  '#######'  #'      '#     '####' # '####'        



                #########################################################
                #                        -***-                          #
                #          Department of theory and spectroscopy        #
                #                                                       #
                #                      Frank Neese                      #
                #                                                       #
                #     Directorship, Architecture, Infrastructure        #
                #                    SHARK, DRIVERS                     #
                #        Core code/Algorithms in most modules           #
                #                                                       #
                #        Max Planck Institute fuer Kohlenforschung      #
                #                Kaiser Wilhelm Platz 1                 #
                #                 D-45470 Muelheim/Ruhr                 #
                #                      Germany                          #
                #                                                       #
                #                  All rights reserved                  #
                #                        -***-                          #
                #########################################################


                         Program Version 6.0.1  -  RELEASE   -


 With contributions from (in alphabetic order):
[Max-Planck-Institut fuer Kohlenforschung]                               
  Daniel Aravena         : Magnetic Suceptibility                        
  Michael Atanasov       : Ab Initio Ligand Field Theory (pilot matlab implementation)
  Alexander A. Auer      : GIAO ZORA, VPT2 properties, NMR spectrum      
  Ute Becker             : All parallelization in ORCA, NUMFREQ, NUMCALC 
  Giovanni Bistoni       : ED, misc. LED, open-shell LED, HFLD           
  Martin Brehm           : Molecular dynamics                            
  Dmytro Bykov           : pre 5.0 version of the SCF Hessian            
  Marcos Casanova-Páez   : Triplet and SCS-CIS(D). UHF-(DLPNO)-IP/EA/STEOM-CCSD. UHF-CVS-IP/STEOM-CCSD   
  Vijay G. Chilkuri      : MRCI spin determinant printing, contributions to CSF-ICE 
  Pauline Colinet        : FMM embedding                                 
  Dipayan Datta          : RHF DLPNO-CCSD density                        
  Achintya Kumar Dutta   : EOM-CC, STEOM-CC                              
  Nicolas Foglia         : Exact transition moments, OPA infrastructure, MCD improvements    
  Dmitry Ganyushin       : Spin-Orbit,Spin-Spin,Magnetic field MRCI      
  Miquel Garcia-Rates    : C-PCM and meta-GGA Hessian, CCSD/C-PCM, Gaussian charge scheme 
  Tiago L. C. Gouveia    : GS-ROHF, GS-ROCIS                             
  Yang Guo               : DLPNO-NEVPT2, F12-NEVPT2, CIM, IAO-localization        
  Andreas Hansen         : Spin unrestricted coupled pair/coupled cluster methods 
  Ingolf Harden          : AUTO-CI MPn and infrastructure                
  Benjamin Helmich-Paris : MC-RPA, TRAH-(SCF,CASSCF), AVAS, COSX integrals, SCF dyn. polar. 
  Lee Huntington         : MR-EOM, pCC                                   
  Robert Izsak           : Overlap fitted RIJCOSX, COSX-SCS-MP3, EOM     
  Riya Kayal             : Wick's Theorem for AUTO-CI, AUTO-CI UHF-CCSDT 
  Emily Kempfer          : AUTO-CI, RHF CISDT and CCSDT                  
  Christian Kollmar      : KDIIS, OOCD, Brueckner-CCSD(T), CCSD density, CASPT2, CASPT2-K, improved NEVPT2 
  Axel Koslowski         : Symmetry handling                             
  Simone Kossmann        : meta-GGA functionals, TD-DFT gradient, OOMP2, (MP2 Hessian; deprecated post 5.0) 
  Lucas Lang             : DCDCAS                                        
  Marvin Lechner         : AUTO-CI (C++ implementation), FIC-MRCC        
  Spencer Leger          : CASSCF response                               
  Dagmar Lenk            : GEPOL surface, SMD, ORCA-2-JSON               
  Dimitrios Liakos       : Extrapolation schemes; Compound Job, initial MDCI parallelization 
  Dimitrios Manganas     : Further ROCIS development; embedding schemes. LFT, Crystal Embedding 
  Dimitrios Pantazis     : SARC Basis sets                               
  Anastasios Papadopoulos: AUTO-CI, single reference methods and gradients 
  Taras Petrenko         : pre 6.0 DFT Hessian and TD-DFT gradient, (ASA, deprecated), ECA, 1-Electron XAS/XES, NRVS 
  Peter Pinski           : DLPNO-MP2, DLPNO-MP2 Gradient                 
  Christoph Reimann      : Effective Core Potentials                     
  Marius Retegan         : Local ZFS, SOC                                
  Christoph Riplinger    : Optimizer, TS searches, QM/MM, DLPNO-CCSD(T), (RO)-DLPNO pert. Triples 
  Michael Roemelt        : Original ROCIS implementation                 
  Masaaki Saitow         : Open-shell DLPNO-CCSD energy and density      
  Barbara Sandhoefer     : DKH picture change effects                    
  Kantharuban Sivalingam : CASSCF convergence/infrastructure, NEVPT2 and variants, FIC-MRCI 
  Bernardo de Souza      : ESD, SOC TD-DFT                               
  Georgi L. Stoychev     : AutoAux, RI-MP2 NMR, DLPNO-MP2 response, X2C  
  Van Anh Tran           : RI-MP2 g-tensors                              
  Willem Van den Heuvel  : Paramagnetic NMR                              
  Zikuan Wang            : NOTCH, Electric field optimization            
  Frank Wennmohs         : Technical directorship and infrastructure     
  Hang Xu                : AUTO-CI-Response properties                   
                                                                         
[FACCTs GmbH]                                                            
  Markus Bursch, Miquel Garcia-Rates, Christoph Riplinger, Bernardo de Souza, Georgi L. Stoychev 
                                                                 
  APM, Basis sets (HGBS, AHGBS, def-TZVP (Ac-Lr), def2-XVPD (La-Lu)), CI-OPT, improved COSX, DLPNO-Multilevel,           
  DOCKER, DRACO, updates on ESD, GOAT, IRC, LR-CPCM, MBIS, meta-GGA TD-DFT gradient, ML-optimized integration grids, 
  MM, NACMEs, nearIR, NEB, NEB-TS, NL-DFT gradient (VV10), 2- and 3-layer-ONIOM, interface openCOSMO-RS, QMMM,   
  Crystal-QMMM, SF, symmetry and pop. for TD-DFT, r2SCAN hybrids, SOLVATOR                                   
                                                                         
[Other institutions]                                                     
  V. Asgeirsson          : NEB                                           
  Christoph Bannwarth    : sTDA-DFT, sTD-DFT, PBEh-3c, B97-3c, D3        
  Sebastian Ehlert       : rSCAN, r2SCAN, r2SCAN-3c, D4, dhf basis sets  
  Marvin Friede          : D4 for Fr, Ra, Ac-Lr                          
  Lars Goerigk           : TD-DFT with DH, B97 family of functionals     
  Stefan Grimme          : VdW corrections, initial TS optimization, DFT functionals, gCP, sTDA/sTD-DF 
  Waldemar Hujo          : DFT-NL                                        
  H. Jonsson             : NEB                                           
  Holger Kruse           : gCP                                           
  Marcel Mueller         : wB97X-3c, vDZP basis set                      
  Hagen Neugebauer       : wr2SCAN                                       
  Tobias Risthaus        : range-separated hybrid DFT                    
  Lukas Wittmann         : regularized MP2, r2SCAN double-hybrids, wr2SCAN        
                                                                         
We gratefully acknowledge several colleagues who have allowed us to      
interface, adapt or use parts of their codes:                            
  Ed Valeev, F. Pavosevic, A. Kumar             : LibInt (2-el integral package), F12 methods 
  Garnet Chan, S. Sharma, J. Yang, R. Olivares  : DMRG                   
  Ulf Ekstrom                                   : XCFun DFT Library      
  Mihaly Kallay                                 : mrcc  (arbitrary order and MRCC methods)
  Frank Weinhold                                : gennbo (NPA and NBO analysis)           
  Simon Mueller                                 : openCOSMO-RS                            
  Christopher J. Cramer and Donald G. Truhlar   : smd solvation model                     
  S Lehtola, MJT Oliveira, MAL Marques          : LibXC Library                           
  Liviu Ungur et al                             : ANISO software                          


 Your calculation uses the libint2 library for the computation of 2-el integrals
 For citations please refer to: http://libint.valeyev.net

 Your ORCA version has been built with support for libXC version: 6.2.2
 For citations please refer to: https://libxc.gitlab.io

 This ORCA versions uses:
   CBLAS   interface :  Fast vector & matrix operations
   LAPACKE interface :  Fast linear algebra routines
   SCALAPACK package :  Parallel linear algebra routines
   Shared memory     :  Shared parallel matrices
   BLAS/LAPACK       :  OpenBLAS 0.3.27  USE64BITINT DYNAMIC_ARCH NO_AFFINITY Zen SINGLE_THREADED
        Core in use  :  Zen
   Copyright (c) 2011-2014, The OpenBLAS Project


NOTE: MaxCore=6000 MB was set to SCF,MP2,MDCI,CIPSI,MRCI and CIS
      => If you want to overwrite this, your respective input block should be placed after the MaxCore statement
Your calculation utilizes the atom-pairwise dispersion correction
with the Becke-Johnson damping scheme (D3BJ)


Your calculation employs the composite approach B97-3c by Grimme and coworkers.
For the correct reference, please check the publication list of the Grimme group:
http://www.thch.uni-bonn.de/tc/index.php?section=publikationen&subsection=grimme#2017
   

XCFun DFT library Copyright 2009-2010 Ulf Ekstrom and contributors.
See http://admol.org/xcfun for more information.
This is free software; see the source code for copying conditions.
There is ABSOLUTELY NO WARRANTY; not even for MERCHANTABILITY or FITNESS FOR A PARTICULAR PURPOSE.
For details see the documentation.
Scientific users of this library should cite U. Ekstrom, L. Visscher, R. Bast, A. J. Thorvaldsen and K. Ruud;
J.Chem.Theor.Comp. 2010, DOI: 10.1021/ct100117s
XCFun Version 0.99 

================================================================================

----- Orbital basis set information -----
Your calculation utilizes the basis: def2-mTZVP
----- AuxJ basis set information -----
Your calculation utilizes the basis: def2-mTZVP/J
================================================================================
                                        WARNINGS
                       Please study these warnings very carefully!
================================================================================


WARNING: Geometry Optimization
  ===> : Switching off AutoStart
         For restart on a previous wavefunction, please use MOREAD

================================================================================
                                       INPUT FILE
================================================================================
NAME = m1_00_Vitamin_C-QM3_00-B97-3C-TZ.inp
|  1> %pal nprocs 16 end
|  2> %MaxCore 6000
|  3> # put your comments here
|  4> ! B97-3C  OPT  FREQ DEFGRID3 NOTRAH
|  5> %scf MaxIter 800 end
|  6> %output
|  7> Print [P_Hirshfeld] 1
|  8> end
|  9> %geom
| 10> MaxIter 3000
| 11>  TolE 1e-6 #TolE 5e-6 Energy change (a.u.)
| 12>  TolRMSG 3e-5 #TolRMSG 1e-4 RMS gradient (a.u.)
| 13>  TolMaxG 1e-4 #TolMaxG 3e-3 Max. element of gradient (a.u.)
| 14>  TolRMSD 2e-3 #TolRMSD 2e-3 RMS displacement (a.u.)
| 15>  TolMaxD 4e-3 #TolMaxD 4e-3 Max. displacement (a.u.)
| 16> end
| 17> * xyz 0 1
| 18>  O       1.62882927      -0.85162242      -0.12612113
| 19>  O       0.01359764       2.18380728       0.95474112
| 20>  O      -0.79118322       1.34417141      -1.51977803
| 21>  O      -1.70537857       0.18766151       1.19916020
| 22>  O      -1.00757221      -1.58823853      -2.38385167
| 23>  O       1.15874232      -2.89422806      -0.97457287
| 24>  C       1.07450148       0.43509040      -0.22213751
| 25>  C       0.58300173       0.91211150       1.12499566
| 26>  C      -0.03602809       0.30339120      -1.19914478
| 27>  C      -0.43559823      -0.03050748       1.74082362
| 28>  C      -0.12536061      -0.97265719      -1.57025346
| 29>  C       0.94414864      -1.72250391      -0.88545183
| 30>  H       1.83519744       1.13223709      -0.59222051
| 31>  H       1.45988996       0.97416819       1.78582559
| 32>  H      -0.09745870      -1.06244743       1.63411252
| 33>  H      -0.50679060       0.18213379       2.81195630
| 34>  H      -0.91789624       2.10888453       1.20183219
| 35>  H      -0.57384104       2.04620778      -0.88718835
| 36>  H      -1.75571186      -0.16894042       0.30710343
| 37>  H      -0.74508911      -2.51871925      -2.39983049
| 38> *
| 39> 
| 40> 
| 41> 
| 42> 
| 43>                          ****END OF INPUT****
================================================================================

                       *****************************
                       * Geometry Optimization Run *
                       *****************************

Geometry optimization settings:
Update method            Update   .... BFGS
Choice of coordinates    CoordSys .... (2022) Redundant Internals
Initial Hessian          InHess   .... Almloef's Model
Max. no of cycles        MaxIter  .... 3000

Convergence Tolerances:
Energy Change            TolE     ....  1.0000e-06 Eh
Max. Gradient            TolMAXG  ....  1.0000e-04 Eh/bohr
RMS Gradient             TolRMSG  ....  3.0000e-05 Eh/bohr
Max. Displacement        TolMAXD  ....  4.0000e-03 bohr
RMS Displacement         TolRMSD  ....  2.0000e-03 bohr
Strict Convergence                .... False

------------------------------------------------------------------------------
                        ORCA OPTIMIZATION COORDINATE SETUP
------------------------------------------------------------------------------

The optimization will be done in redundant internal coordinates (2022)
Making redundant internal coordinates   ...  (2022 redundants) done
Evaluating the initial hessian          ...  (Almloef) done
Evaluating the coordinates              ...  done
Calculating the B-matrix                .... done
Calculating the G-matrix                .... done
Diagonalizing the G-matrix              .... done
Small eigenvalue found = 2.081e-02
The first mode is                       ....   41
The number of degrees of freedom        ....   54

    -----------------------------------------------------------------
                    Redundant Internal Coordinates


    -----------------------------------------------------------------
         Definition                    Initial Value    Approx d2E/dq
    -----------------------------------------------------------------
      1. B(C   6,O   0)                  1.4043         0.530910   
      2. B(C   7,C   6)                  1.5113         0.400208   
      3. B(C   7,O   1)                  1.4037         0.532100   
      4. B(C   8,C   6)                  1.4850         0.440763   
      5. B(C   8,O   2)                  1.3253         0.709871   
      6. B(C   9,C   7)                  1.5183         0.389941   
      7. B(C   9,O   3)                  1.3976         0.544151   
      8. B(C  10,C   8)                  1.3319         0.773405   
      9. B(C  10,O   4)                  1.3488         0.651112   
     10. B(C  11,C  10)                  1.4748         0.457536   
     11. B(C  11,O   5)                  1.1945         1.147404   
     12. B(C  11,O   0)                  1.3431         0.664918   
     13. B(H  12,C   6)                  1.0962         0.352003   
     14. B(H  13,C   7)                  1.0998         0.347413   
     15. B(H  14,C   9)                  1.0912         0.358571   
     16. B(H  15,C   9)                  1.0944         0.354387   
     17. B(H  16,O   3)                  2.0764         0.008608   
     18. B(H  16,O   1)                  0.9666         0.507469   
     19. B(H  17,O   1)                  1.9382         0.014298   
     20. B(H  17,O   2)                  0.9697         0.501807   
     21. B(H  18,O   3)                  0.9620         0.516131   
     22. B(H  19,O   5)                  2.4077         0.002548   
     23. B(H  19,O   4)                  0.9669         0.506892   
     24. A(C   6,O   0,C  11)          110.7469         0.421929   
     25. A(C   7,O   1,H  16)          106.8386         0.359065   
     26. A(C   8,O   2,H  17)          106.4411         0.376541   
     27. A(C   9,O   3,H  18)          110.4293         0.361479   
     28. A(C  10,O   4,H  19)          105.7600         0.371616   
     29. A(O   0,C   6,C   8)          105.0059         0.394862   
     30. A(C   7,C   6,C   8)          111.7929         0.378290   
     31. A(O   0,C   6,H  12)          109.3825         0.340410   
     32. A(C   8,C   6,H  12)          110.6858         0.332040   
     33. A(O   0,C   6,C   7)          110.8940         0.388252   
     34. A(C   7,C   6,H  12)          109.0196         0.326788   
     35. A(C   6,C   7,C   9)          112.5675         0.370379   
     36. A(C   9,C   7,H  13)          109.0400         0.324692   
     37. A(C   6,C   7,H  13)          107.1049         0.326083   
     38. A(O   1,C   7,H  13)          110.1937         0.339791   
     39. A(O   1,C   7,C   6)          108.0452         0.388404   
     40. A(O   1,C   7,C   9)          109.8464         0.386648   
     41. A(O   2,C   8,C   6)          121.0419         0.415648   
     42. A(C   6,C   8,C  10)          108.5687         0.424810   
     43. A(O   2,C   8,C  10)          130.2988         0.459981   
     44. A(H  14,C   9,H  15)          107.4362         0.289917   
     45. A(O   3,C   9,H  15)          106.8521         0.342202   
     46. A(C   7,C   9,H  14)          109.8508         0.326385   
     47. A(O   3,C   9,H  14)          113.0337         0.342875   
     48. A(O   3,C   9,C   7)          110.8180         0.388160   
     49. A(C   7,C   9,H  15)          108.6630         0.325755   
     50. A(C   8,C  10,C  11)          108.0047         0.427661   
     51. A(O   4,C  10,C  11)          121.4916         0.412041   
     52. A(O   4,C  10,C   8)          130.4813         0.452797   
     53. A(O   0,C  11,O   5)          125.9193         0.485375   
     54. A(O   5,C  11,C  10)          126.4668         0.456240   
     55. A(O   0,C  11,C  10)          107.6095         0.413579   
     56. D(C   7,C   6,O   0,C  11)    118.4732         0.022387   
     57. D(C   8,C   6,O   0,C  11)     -2.4402         0.022387   
     58. D(H  12,C   6,O   0,C  11)   -121.2558         0.022387   
     59. D(C   9,C   7,C   6,H  12)   -177.5848         0.012707   
     60. D(O   1,C   7,C   6,C   8)    -61.7548         0.012707   
     61. D(C   9,C   7,C   6,C   8)     59.7163         0.012707   
     62. D(C   9,C   7,O   1,H  16)     -5.1529         0.024420   
     63. D(H  13,C   7,O   1,H  16)   -125.3050         0.024420   
     64. D(C   6,C   7,O   1,H  16)    117.9882         0.024420   
     65. D(O   1,C   7,C   6,O   0)   -178.5695         0.012707   
     66. D(O   1,C   7,C   6,H  12)     60.9440         0.012707   
     67. D(C   9,C   7,C   6,O   0)    -57.0983         0.012707   
     68. D(O   2,C   8,C   6,O   0)    179.3834         0.014334   
     69. D(C  10,C   8,O   2,H  17)    165.2445         0.037839   
     70. D(C   6,C   8,O   2,H  17)    -10.8769         0.037839   
     71. D(C  10,C   8,C   6,C   7)   -117.8168         0.014334   
     72. D(C  10,C   8,C   6,O   0)      2.5031         0.014334   
     73. D(O   2,C   8,C   6,H  12)    -62.6809         0.014334   
     74. D(O   2,C   8,C   6,C   7)     59.0634         0.014334   
     75. D(H  14,C   9,C   7,H  13)    -73.9556         0.012089   
     76. D(H  14,C   9,C   7,O   1)    165.1943         0.012089   
     77. D(O   3,C   9,C   7,H  13)    160.4309         0.012089   
     78. D(O   3,C   9,C   7,C   6)    -80.8595         0.012089   
     79. D(O   3,C   9,C   7,O   1)     39.5807         0.012089   
     80. D(H  15,C   9,O   3,H  18)   -167.3354         0.025601   
     81. D(H  14,C   9,C   7,C   6)     44.7540         0.012089   
     82. D(H  14,C   9,O   3,H  18)    -49.3660         0.025601   
     83. D(C   7,C   9,O   3,H  18)     74.4427         0.025601   
     84. D(O   4,C  10,C   8,O   2)      0.1269         0.042919   
     85. D(C  11,C  10,O   4,H  19)     -1.6103         0.031341   
     86. D(C   8,C  10,O   4,H  19)   -179.6686         0.031341   
     87. D(C  11,C  10,C   8,C   6)     -1.6373         0.042919   
     88. D(C  11,C  10,C   8,O   2)   -178.1322         0.042919   
     89. D(O   4,C  10,C   8,C   6)    176.6218         0.042919   
     90. D(O   5,C  11,C  10,C   8)    179.4078         0.014262   
     91. D(O   5,C  11,C  10,O   4)      0.9606         0.014262   
     92. D(O   0,C  11,C  10,C   8)      0.1425         0.014262   
     93. D(O   0,C  11,C  10,O   4)   -178.3047         0.014262   
     94. D(C  10,C  11,O   0,C   6)      1.5216         0.032800   
     95. D(O   5,C  11,O   0,C   6)   -177.7489         0.032800   
    -----------------------------------------------------------------

Number of atoms                         .... 20
Number of degrees of freedom            .... 95


         *************************************************************
         *                GEOMETRY OPTIMIZATION CYCLE   1            *
         *************************************************************
---------------------------------
CARTESIAN COORDINATES (ANGSTROEM)
---------------------------------
  O      1.628829   -0.851622   -0.126121
  O      0.013598    2.183807    0.954741
  O     -0.791183    1.344171   -1.519778
  O     -1.705379    0.187662    1.199160
  O     -1.007572   -1.588239   -2.383852
  O      1.158742   -2.894228   -0.974573
  C      1.074501    0.435090   -0.222138
  C      0.583002    0.912111    1.124996
  C     -0.036028    0.303391   -1.199145
  C     -0.435598   -0.030507    1.740824
  C     -0.125361   -0.972657   -1.570253
  C      0.944149   -1.722504   -0.885452
  H      1.835197    1.132237   -0.592221
  H      1.459890    0.974168    1.785826
  H     -0.097459   -1.062447    1.634113
  H     -0.506791    0.182134    2.811956
  H     -0.917896    2.108885    1.201832
  H     -0.573841    2.046208   -0.887188
  H     -1.755712   -0.168940    0.307103
  H     -0.745089   -2.518719   -2.399830

----------------------------
CARTESIAN COORDINATES (A.U.)
----------------------------
  NO LB      ZA    FRAG     MASS         X           Y           Z
   0 O     8.0000    0    15.999    3.078041   -1.609333   -0.238334
   1 O     8.0000    0    15.999    0.025696    4.126798    1.804199
   2 O     8.0000    0    15.999   -1.495120    2.540116   -2.871964
   3 O     8.0000    0    15.999   -3.222698    0.354629    2.266084
   4 O     8.0000    0    15.999   -1.904036   -3.001336   -4.504827
   5 O     8.0000    0    15.999    2.189706   -5.469298   -1.841676
   6 C     6.0000    0    12.011    2.030514    0.822202   -0.419779
   7 C     6.0000    0    12.011    1.101714    1.723641    2.125934
   8 C     6.0000    0    12.011   -0.068083    0.573326   -2.266055
   9 C     6.0000    0    12.011   -0.823161   -0.057651    3.289680
  10 C     6.0000    0    12.011   -0.236897   -1.838056   -2.967349
  11 C     6.0000    0    12.011    1.784182   -3.255061   -1.673261
  12 H     1.0000    0     1.008    3.468021    2.139618   -1.119135
  13 H     1.0000    0     1.008    2.758792    1.840911    3.374721
  14 H     1.0000    0     1.008   -0.184170   -2.007735    3.088025
  15 H     1.0000    0     1.008   -0.957695    0.344183    5.313827
  16 H     1.0000    0     1.008   -1.734573    3.985214    2.271134
  17 H     1.0000    0     1.008   -1.084402    3.866772   -1.676543
  18 H     1.0000    0     1.008   -3.317815   -0.319251    0.580341
  19 H     1.0000    0     1.008   -1.408014   -4.759690   -4.535022

--------------------------------
INTERNAL COORDINATES (ANGSTROEM)
--------------------------------
 O      0   0   0     0.000000000000     0.00000000     0.00000000
 O      1   0   0     3.604312678677     0.00000000     0.00000000
 O      2   1   0     2.734210242562    66.53986516     0.00000000
 O      2   1   3     2.645603491134    71.54594659    75.80979707
 O      3   2   1     3.064714588106   124.73451461    33.05076142
 O      1   2   3     2.261214252615   141.27012395   309.82883441
 C      1   2   3     1.404324864533    21.87104197    38.84497463
 C      2   1   3     1.403715705892    24.71877107   144.57709585
 C      3   2   1     1.325250314808    81.63296712     6.27976090
 C      4   2   1     1.397619075648    64.10452082    48.92915723
 C      9   3   2     1.331916455759   130.29884639   151.04204927
 C      6   1   2     1.194541958643    28.75143260    35.49144511
 H      7   1   2     1.096190347443   109.38245757   121.69294918
 H      8   2   1     1.099763700560   110.19366425   117.95205214
 H     10   4   2     1.091157945037   113.03366456   215.49081021
 H     10   4   2     1.094353636361   106.85212492    97.52141726
 H      2   1   3     0.966616916787   116.31048652    72.11357371
 H      3   2   1     0.969671279998    28.51230445   215.81554346
 H      4   2   1     0.962010216923   103.18011995   302.38119777
 H      5   3   2     0.966926610848   154.99306745   325.35381664

---------------------------
INTERNAL COORDINATES (A.U.)
---------------------------
 O      0   0   0     0.000000000000     0.00000000     0.00000000
 O      1   0   0     6.811163863719     0.00000000     0.00000000
 O      2   1   0     5.166908551004    66.53986516     0.00000000
 O      2   1   3     4.999466057190    71.54594659    75.80979707
 O      3   2   1     5.791471250153   124.73451461    33.05076142
 O      1   2   3     4.273075667562   141.27012395   309.82883441
 C      1   2   3     2.653789397024    21.87104197    38.84497463
 C      2   1   3     2.652638254021    24.71877107   144.57709585
 C      3   2   1     2.504360153880    81.63296712     6.27976090
 C      4   2   1     2.641117292518    64.10452082    48.92915723
 C      9   3   2     2.516957334648   130.29884639   151.04204927
 C      6   1   2     2.257357157314    28.75143260    35.49144511
 H      7   1   2     2.071499547315   109.38245757   121.69294918
 H      8   2   1     2.078252206087   110.19366425   117.95205214
 H     10   4   2     2.061989684973   113.03366456   215.49081021
 H     10   4   2     2.068028666384   106.85212492    97.52141726
 H      2   1   3     1.826641249143   116.31048652    72.11357371
 H      3   2   1     1.832413159125    28.51230445   215.81554346
 H      4   2   1     1.817935848019   103.18011995   302.38119777
 H      5   3   2     1.827226486103   154.99306745   325.35381664

---------------------
BASIS SET INFORMATION
---------------------
There are 3 groups of distinct atoms

 Group   1 Type O   : 11s6p2d contracted to 5s3p2d pattern {62111/411/11}
 Group   2 Type C   : 11s6p1d contracted to 5s3p1d pattern {62111/411/1}
 Group   3 Type H   : 5s contracted to 3s pattern {311}

Atom   0O    basis set group =>   1
Atom   1O    basis set group =>   1
Atom   2O    basis set group =>   1
Atom   3O    basis set group =>   1
Atom   4O    basis set group =>   1
Atom   5O    basis set group =>   1
Atom   6C    basis set group =>   2
Atom   7C    basis set group =>   2
Atom   8C    basis set group =>   2
Atom   9C    basis set group =>   2
Atom  10C    basis set group =>   2
Atom  11C    basis set group =>   2
Atom  12H    basis set group =>   3
Atom  13H    basis set group =>   3
Atom  14H    basis set group =>   3
Atom  15H    basis set group =>   3
Atom  16H    basis set group =>   3
Atom  17H    basis set group =>   3
Atom  18H    basis set group =>   3
Atom  19H    basis set group =>   3
---------------------------------
AUXILIARY/J BASIS SET INFORMATION
---------------------------------
There are 3 groups of distinct atoms

 Group   1 Type O   : 8s3p3d contracted to 6s3p3d pattern {311111/111/111}
 Group   2 Type C   : 8s3p3d contracted to 6s3p3d pattern {311111/111/111}
 Group   3 Type H   : 5s2p contracted to 3s1p pattern {311/2}

Atom   0O    basis set group =>   1
Atom   1O    basis set group =>   1
Atom   2O    basis set group =>   1
Atom   3O    basis set group =>   1
Atom   4O    basis set group =>   1
Atom   5O    basis set group =>   1
Atom   6C    basis set group =>   2
Atom   7C    basis set group =>   2
Atom   8C    basis set group =>   2
Atom   9C    basis set group =>   2
Atom  10C    basis set group =>   2
Atom  11C    basis set group =>   2
Atom  12H    basis set group =>   3
Atom  13H    basis set group =>   3
Atom  14H    basis set group =>   3
Atom  15H    basis set group =>   3
Atom  16H    basis set group =>   3
Atom  17H    basis set group =>   3
Atom  18H    basis set group =>   3
Atom  19H    basis set group =>   3


           ************************************************************
           *        Program running with 16 parallel MPI-processes    *
           *              working on a common directory               *
           ************************************************************
------------------------------------------------------------------------------
                             ORCA STARTUP CALCULATIONS
                           -- RI-GTO INTEGRALS CHOSEN --
------------------------------------------------------------------------------
------------------------------------------------------------------------------
                   ___                                                        
                  /   \      - P O W E R E D   B Y -                         
                 /     \                                                     
                 |  |  |   _    _      __       _____    __    __             
                 |  |  |  | |  | |    /  \     |  _  \  |  |  /  |          
                  \  \/   | |  | |   /    \    | | | |  |  | /  /          
                 / \  \   | |__| |  /  /\  \   | |_| |  |  |/  /          
                |  |  |   |  __  | /  /__\  \  |    /   |      \           
                |  |  |   | |  | | |   __   |  |    \   |  |\   \          
                \     /   | |  | | |  |  |  |  | |\  \  |  | \   \       
                 \___/    |_|  |_| |__|  |__|  |_| \__\ |__|  \__/        
                                                                              
                      - O R C A' S   B I G   F R I E N D -                    
                                      &                                       
                       - I N T E G R A L  F E E D E R -                       
                                                                              
 v1 FN, 2020, v2 2021, v3 2022-2024                                           
------------------------------------------------------------------------------


----------------------
SHARK INTEGRAL PACKAGE
----------------------

Number of atoms                             ...     20
Number of basis functions                   ...    282
Number of shells                            ...    138
Maximum angular momentum                    ...      2
Integral batch strategy                     ... SHARK/LIBINT Hybrid
RI-J (if used) integral strategy            ... SPLIT-RIJ (Revised 2003 algorithm where possible)
Printlevel                                  ...      1
Contraction scheme used                     ... SEGMENTED contraction
Prescreening option                         ... SCHWARTZ
   Thresh                                   ... 2.500e-11
   Tcut                                     ... 2.500e-12
   Tpresel                                  ... 2.500e-12 
Coulomb Range Separation                    ... NOT USED
Exchange Range Separation                   ... NOT USED
Multipole approximations                    ... NOT USED
Finite Nucleus Model                        ... NOT USED
CABS basis                                  ... NOT available
Auxiliary Coulomb fitting basis             ... AVAILABLE
   # of basis functions in Aux-J            ...    408
   # of shells in Aux-J                     ...    176
   Maximum angular momentum in Aux-J        ...      2
Auxiliary J/K fitting basis                 ... NOT available
Auxiliary Correlation fitting basis         ... NOT available
Auxiliary 'external' fitting basis          ... NOT available

Checking pre-screening integrals            ... done (  0.0 sec) Dimension = 138
Check shell pair data                       ... done (  0.0 sec)
Shell pair information
Shell pair cut-off parameter TPreSel        ...   2.5e-12
Total number of shell pairs                 ...      9591
Shell pairs after pre-screening             ...      8587
Total number of primitive shell pairs       ...     34741
Primitive shell pairs kept                  ...     21483
          la=0 lb=0:   2996 shell pairs
          la=1 lb=0:   2770 shell pairs
          la=1 lb=1:    643 shell pairs
          la=2 lb=0:   1381 shell pairs
          la=2 lb=1:    630 shell pairs
          la=2 lb=2:    167 shell pairs

Calculating one electron integrals          ... done (  0.0 sec)
Calculating RI/J V-Matrix + Cholesky decomp.... done (  0.0 sec)
Calculating Nuclear repulsion               ... done (  0.0 sec) ENN=    798.106271920968 Eh

Diagonalization of the overlap matrix:
Smallest eigenvalue                        ... 2.161e-05
Time for diagonalization                   ...    0.014 sec
Threshold for overlap eigenvalues          ... 1.000e-07
Number of eigenvalues below threshold      ... 0
Time for construction of square roots      ...    0.003 sec
Total time needed                          ...    0.018 sec

-------------------
DFT GRID GENERATION
-------------------

General Integration Accuracy     IntAcc      ... 4.959
Radial Grid Type                 RadialGrid  ... OptM3 with GC (2021)
Angular Grid (max. ang.)         AngularGrid ... 6 (Lebedev-590)
Angular grid pruning method      GridPruning ... 4 (adaptive)
Weight generation scheme         WeightScheme... mBecke (2022)
Basis function cutoff            BFCut       ... 1.0000e-11
Integration weight cutoff        WCut        ... 1.0000e-14
Partially contracted basis set               ... off
Rotationally invariant grid construction     ... off
Angular grids for H and He will be reduced by one unit
Diffuse basis detected: some atoms will have their outermost
                        angular grid increased by 1.

Total number of grid points                  ...   242971
Total number of batches                      ...     3807
Average number of points per batch           ...       63
Average number of grid points per atom       ...    12149
Initializing property integral containers    ... done (  0.0 sec)

SHARK setup successfully completed in   2.6 seconds

Maximum memory used throughout the entire STARTUP-calculation: 54.6 MB


           ************************************************************
           *        Program running with 16 parallel MPI-processes    *
           *              working on a common directory               *
           ************************************************************
-------------------------------------------------------------------------------
                                 ORCA GUESS
                   Start orbitals & Density for SCF / CASSCF
-------------------------------------------------------------------------------

------------
SCF SETTINGS
------------
Hamiltonian:
 Density Functional     Method          .... DFT(GTOs)
 Exchange Functional    Exchange        .... B973C
 Correlation Functional Correlation     .... B973C
 Gradients option       PostSCFGGA      .... off
 RI-approximation to the Coulomb term is turned on
   Number of AuxJ basis functions       .... 408


General Settings:
 Integral files         IntName         .... m1_00_Vitamin_C-QM3_00-B97-3C-TZ
 Hartree-Fock type      HFTyp           .... RHF
 Total Charge           Charge          ....    0
 Multiplicity           Mult            ....    1
 Number of Electrons    NEL             ....   92
 Basis Dimension        Dim             ....  282
 Nuclear Repulsion      ENuc            ....    798.1062719210 Eh

Convergence Acceleration:
 AO-DIIS                CNVDIIS         .... on
   Start iteration      DIISMaxIt       ....    12
   Startup error        DIISStart       ....  0.200000
   # of expansion vecs  DIISMaxEq       ....     5
   Bias factor          DIISBfac        ....   1.050
   Max. coefficient     DIISMaxC        ....  10.000
 MO-DIIS                CNVKDIIS        .... off
 Trust-Rad. Augm. Hess. CNVTRAH         .... off
 SOSCF                  CNVSOSCF        .... on
   Start iteration      SOSCFMaxIt      ....   150
   Startup grad/error   SOSCFStart      ....  0.003300
   Hessian update       SOSCFHessUp     .... L-BFGS
 Level Shifting         CNVShift        .... on
   Level shift para.    LevelShift      ....    0.2500
   Turn off err/grad.   ShiftErr        ....    0.0010
 Zerner damping         CNVZerner       .... off
 Static damping         CNVDamp         .... on
   Fraction old density DampFac         ....    0.7000
   Max. Damping (<1)    DampMax         ....    0.9800
   Min. Damping (>=0)   DampMin         ....    0.0000
   Turn off err/grad.   DampErr         ....    0.1000

SCF Procedure:
 Maximum # iterations   MaxIter         ....   800
 SCF integral mode      SCFMode         .... Direct
   Integral package                     .... SHARK and LIBINT hybrid scheme
 Reset frequency        DirectResetFreq ....    20
 Integral Threshold     Thresh          ....  2.500e-11 Eh
 Primitive CutOff       TCut            ....  2.500e-12 Eh

Convergence Tolerance:
 Convergence Check Mode ConvCheckMode   .... Total+1el-Energy
 Convergence forced     ConvForced      .... 0
 Energy Change          TolE            ....  1.000e-08 Eh
 1-El. energy change                    ....  1.000e-05 Eh
 Orbital Gradient       TolG            ....  1.000e-05
 Orbital Rotation angle TolX            ....  1.000e-05
 DIIS Error             TolErr          ....  5.000e-07

--------------------------------
INITIAL GUESS: MINIMAL BASIS EHT
--------------------------------
The minimal basis has 68 functions
EHT matrix was diagonalized
Basis set overlap was calculated now projecting the orbitals
Using GuessMode=FMatrix for the initial guess
C*T matrix was formed
Effective Fockian was calculated
Effective Fockian was diagonalized
Initial density was built
                      ------------------
                      INITIAL GUESS DONE
                      ------------------
             **** ENERGY FILE WAS UPDATED (m1_00_Vitamin_C-QM3_00-B97-3C-TZ.en.tmp) ****
Finished Guess after   0.1 sec
Maximum memory used throughout the entire GUESS-calculation: 15.8 MB


           ************************************************************
           *        Program running with 16 parallel MPI-processes    *
           *              working on a common directory               *
           ************************************************************

-------------------------------------------------------------------------------------------
                                      ORCA LEAN-SCF
                              memory conserving SCF solver
-------------------------------------------------------------------------------------------

----------------------------------------D-I-I-S--------------------------------------------
Iteration    Energy (Eh)           Delta-E    RMSDP     MaxDP     DIISErr   Damp  Time(sec)
-------------------------------------------------------------------------------------------
               ***  Starting incremental Fock matrix formation  ***
    1    -681.9004290663530128     0.00e+00  9.50e-03  5.46e-01  4.55e-01  0.700   0.5
    2    -682.8277694316046791    -9.27e-01  8.33e-03  4.95e-01  3.28e-01  0.700   0.4
    3    -683.2705789084283197    -4.43e-01  3.87e-03  2.13e-01  2.33e-01  0.700   0.4
                               ***Turning on AO-DIIS***
    4    -683.6051128710956846    -3.35e-01  2.94e-03  1.79e-01  1.62e-01  0.700   0.4
    5    -683.8392357258352376    -2.34e-01  2.06e-03  1.15e-01  1.12e-01  0.700   0.4
    6    -684.0033488702639488    -1.64e-01  1.35e-03  6.21e-02  7.80e-02  0.700   0.4
    7    -684.1185753750938829    -1.15e-01  3.48e-03  2.08e-01  5.46e-02  0.000   0.4
    8    -684.3844006532066260    -2.66e-01  1.01e-03  7.62e-02  3.29e-02  0.000   0.4
    9    -684.3871357766062147    -2.74e-03  2.90e-04  2.16e-02  1.22e-02  0.000   0.4
   10    -684.3872075120406180    -7.17e-05  1.27e-04  1.12e-02  8.14e-03  0.000   0.4
                              *** Initializing SOSCF ***
---------------------------------------S-O-S-C-F--------------------------------------
Iteration    Energy (Eh)           Delta-E    RMSDP     MaxDP     MaxGrad    Time(sec)
--------------------------------------------------------------------------------------
   11    -684.3873824819592073    -1.75e-04  6.02e-05  5.24e-03  1.31e-03     0.4
               *** Restarting incremental Fock matrix formation ***
   12    -684.3873905887415958    -8.11e-06  5.87e-05  4.87e-03  9.43e-05     0.5
   13    -684.3873890589351277     1.53e-06  2.54e-05  2.15e-03  2.04e-04     0.4
   14    -684.3873910627149826    -2.00e-06  4.20e-05  2.87e-03  3.27e-05     0.4
   15    -684.3873909433410745     1.19e-07  4.40e-06  2.58e-04  8.30e-05     0.4
   16    -684.3873910881660549    -1.45e-07  1.25e-05  8.43e-04  6.95e-06     0.4
   17    -684.3873910780988581     1.01e-08  3.67e-06  2.91e-04  1.94e-05     0.4
   18    -684.3873910852447580    -7.15e-09  7.24e-06  6.89e-04  4.98e-06     0.3
                 **** Energy Check signals convergence ****

               *****************************************************
               *                     SUCCESS                       *
               *           SCF CONVERGED AFTER  18 CYCLES          *
               *****************************************************

             **** ENERGY FILE WAS UPDATED (m1_00_Vitamin_C-QM3_00-B97-3C-TZ.en.tmp) ****

----------------
TOTAL SCF ENERGY
----------------

Total Energy       :       -684.38739108524476 Eh          -18623.12769 eV

Components:
Nuclear Repulsion  :        798.10627192096842 Eh           21717.57576 eV
Electronic Energy  :      -1482.49366300621318 Eh          -40340.70345 eV
One Electron Energy:      -2521.82819776707674 Eh          -68622.43396 eV
Two Electron Energy:       1039.33453476086356 Eh           28281.73051 eV

Virial components:
Potential Energy   :      -1366.73276512690109 Eh          -37190.68928 eV
Kinetic Energy     :        682.34537404165621 Eh           18567.56158 eV
Virial Ratio       :          2.00299264437230

DFT components:
N(Alpha)           :       46.000000755962 electrons
N(Beta)            :       46.000000755962 electrons
N(Total)           :       92.000001511923 electrons
E(XC)              :      -86.749559590856 Eh       

---------------
SCF CONVERGENCE
---------------

  Last Energy change         ...    7.1459e-09  Tolerance :   1.0000e-08
  Last MAX-Density change    ...    6.8902e-04  Tolerance :   1.0000e-07
  Last RMS-Density change    ...    7.2372e-06  Tolerance :   5.0000e-09
  Last DIIS Error            ...    1.3089e-03  Tolerance :   5.0000e-07
  Last Orbital Gradient      ...    4.9792e-06  Tolerance :   1.0000e-05
  Last Orbital Rotation      ...    2.4483e-05  Tolerance :   1.0000e-05


----------------
ORBITAL ENERGIES
----------------

  NO   OCC          E(Eh)            E(eV) 
   0   2.0000     -18.810838      -511.8689 
   1   2.0000     -18.802550      -511.6434 
   2   2.0000     -18.793632      -511.4007 
   3   2.0000     -18.787053      -511.2217 
   4   2.0000     -18.776052      -510.9223 
   5   2.0000     -18.743486      -510.0362 
   6   2.0000     -10.024499      -272.7805 
   7   2.0000      -9.984423      -271.6900 
   8   2.0000      -9.975423      -271.4450 
   9   2.0000      -9.974853      -271.4295 
  10   2.0000      -9.963035      -271.1080 
  11   2.0000      -9.962975      -271.1063 
  12   2.0000      -1.059384       -28.8273 
  13   2.0000      -1.023770       -27.8582 
  14   2.0000      -1.003819       -27.3153 
  15   2.0000      -0.998097       -27.1596 
  16   2.0000      -0.970698       -26.4140 
  17   2.0000      -0.969661       -26.3858 
  18   2.0000      -0.761366       -20.7178 
  19   2.0000      -0.734088       -19.9755 
  20   2.0000      -0.672928       -18.3113 
  21   2.0000      -0.601246       -16.3607 
  22   2.0000      -0.590344       -16.0641 
  23   2.0000      -0.570221       -15.5165 
  24   2.0000      -0.528063       -14.3693 
  25   2.0000      -0.519381       -14.1331 
  26   2.0000      -0.490715       -13.3530 
  27   2.0000      -0.481016       -13.0891 
  28   2.0000      -0.473389       -12.8816 
  29   2.0000      -0.448729       -12.2105 
  30   2.0000      -0.429733       -11.6936 
  31   2.0000      -0.409365       -11.1394 
  32   2.0000      -0.404742       -11.0136 
  33   2.0000      -0.398398       -10.8410 
  34   2.0000      -0.388406       -10.5691 
  35   2.0000      -0.381764       -10.3883 
  36   2.0000      -0.355009        -9.6603 
  37   2.0000      -0.341714        -9.2985 
  38   2.0000      -0.336814        -9.1652 
  39   2.0000      -0.321957        -8.7609 
  40   2.0000      -0.314942        -8.5700 
  41   2.0000      -0.293177        -7.9778 
  42   2.0000      -0.271869        -7.3979 
  43   2.0000      -0.261104        -7.1050 
  44   2.0000      -0.252714        -6.8767 
  45   2.0000      -0.206394        -5.6163 
  46   0.0000      -0.060239        -1.6392 
  47   0.0000      -0.014682        -0.3995 
  48   0.0000       0.014313         0.3895 
  49   0.0000       0.021259         0.5785 
  50   0.0000       0.036004         0.9797 
  51   0.0000       0.047551         1.2939 
  52   0.0000       0.053060         1.4438 
  53   0.0000       0.064001         1.7416 
  54   0.0000       0.071489         1.9453 
  55   0.0000       0.082896         2.2557 
  56   0.0000       0.090723         2.4687 
*Only the first 10 virtual orbitals were printed.

                    ********************************
                    * MULLIKEN POPULATION ANALYSIS *
                    ********************************

-----------------------
MULLIKEN ATOMIC CHARGES
-----------------------
   0 O :   -0.198776
   1 O :   -0.634468
   2 O :   -0.482505
   3 O :   -0.569011
   4 O :   -0.543397
   5 O :   -0.369571
   6 C :   -0.222189
   7 C :    0.203849
   8 C :   -0.002330
   9 C :   -0.300765
  10 C :    0.225489
  11 C :    0.314496
  12 H :    0.207126
  13 H :    0.175489
  14 H :    0.200152
  15 H :    0.193720
  16 H :    0.450217
  17 H :    0.444057
  18 H :    0.458047
  19 H :    0.450369
Sum of atomic charges:   -0.0000000

--------------------------------
MULLIKEN REDUCED ORBITAL CHARGES
--------------------------------
  0 O s       :     3.721697  s :     3.721697
      pz      :     1.645266  p :     4.433596
      px      :     1.610318
      py      :     1.178012
      dz2     :     0.012888  d :     0.043482
      dxz     :     0.014044
      dyz     :     0.002158
      dx2y2   :     0.003434
      dxy     :     0.010958

  1 O s       :     3.829238  s :     3.829238
      pz      :     1.853846  p :     4.773760
      px      :     1.424138
      py      :     1.495776
      dz2     :     0.003715  d :     0.031469
      dxz     :     0.011197
      dyz     :    -0.000002
      dx2y2   :     0.015121
      dxy     :     0.001439

  2 O s       :     3.783190  s :     3.783190
      pz      :     1.643165  p :     4.659095
      px      :     1.687347
      py      :     1.328583
      dz2     :     0.006208  d :     0.040220
      dxz     :     0.008639
      dyz     :     0.007678
      dx2y2   :     0.004907
      dxy     :     0.012788

  3 O s       :     3.804850  s :     3.804850
      pz      :     1.435181  p :     4.734562
      px      :     1.474157
      py      :     1.825225
      dz2     :     0.014684  d :     0.029600
      dxz     :     0.000834
      dyz     :     0.006692
      dx2y2   :     0.005535
      dxy     :     0.001854

  4 O s       :     3.793932  s :     3.793932
      pz      :     1.689703  p :     4.705976
      px      :     1.648940
      py      :     1.367332
      dz2     :     0.006256  d :     0.043490
      dxz     :     0.011583
      dyz     :     0.005720
      dx2y2   :     0.010615
      dxy     :     0.009315

  5 O s       :     3.842042  s :     3.842042
      pz      :     1.564143  p :     4.494366
      px      :     1.618866
      py      :     1.311357
      dz2     :     0.006198  d :     0.033163
      dxz     :     0.002528
      dyz     :     0.005308
      dx2y2   :     0.012387
      dxy     :     0.006742

  6 C s       :     3.225920  s :     3.225920
      pz      :     1.069500  p :     2.922414
      px      :     1.001701
      py      :     0.851213
      dz2     :     0.013759  d :     0.073855
      dxz     :     0.014952
      dyz     :     0.013586
      dx2y2   :     0.013786
      dxy     :     0.017772

  7 C s       :     2.992120  s :     2.992120
      pz      :     0.995812  p :     2.732374
      px      :     0.987998
      py      :     0.748563
      dz2     :     0.010899  d :     0.071658
      dxz     :     0.017145
      dyz     :     0.014456
      dx2y2   :     0.015108
      dxy     :     0.014049

  8 C s       :     3.191882  s :     3.191882
      pz      :     1.040417  p :     2.733726
      px      :     0.840600
      py      :     0.852709
      dz2     :     0.008593  d :     0.076722
      dxz     :     0.009401
      dyz     :     0.017958
      dx2y2   :     0.021759
      dxy     :     0.019012

  9 C s       :     3.308815  s :     3.308815
      pz      :     1.068235  p :     2.925851
      px      :     0.776063
      py      :     1.081553
      dz2     :     0.017000  d :     0.066099
      dxz     :     0.011730
      dyz     :     0.004507
      dx2y2   :     0.015195
      dxy     :     0.017667

 10 C s       :     2.958681  s :     2.958681
      pz      :     0.942212  p :     2.742823
      px      :     0.923834
      py      :     0.876777
      dz2     :     0.015362  d :     0.073007
      dxz     :     0.010508
      dyz     :     0.014500
      dx2y2   :     0.015407
      dxy     :     0.017229

 11 C s       :     3.012549  s :     3.012549
      pz      :     0.840765  p :     2.546321
      px      :     0.876134
      py      :     0.829421
      dz2     :     0.013924  d :     0.126634
      dxz     :     0.008051
      dyz     :     0.039164
      dx2y2   :     0.023724
      dxy     :     0.041771

 12 H s       :     0.792874  s :     0.792874

 13 H s       :     0.824511  s :     0.824511

 14 H s       :     0.799848  s :     0.799848

 15 H s       :     0.806280  s :     0.806280

 16 H s       :     0.549783  s :     0.549783

 17 H s       :     0.555943  s :     0.555943

 18 H s       :     0.541953  s :     0.541953

 19 H s       :     0.549631  s :     0.549631



                     *******************************
                     * LOEWDIN POPULATION ANALYSIS *
                     *******************************

----------------------
LOEWDIN ATOMIC CHARGES
----------------------
   0 O :   -0.601814
   1 O :   -0.702583
   2 O :   -0.549939
   3 O :   -0.711190
   4 O :   -0.554268
   5 O :   -0.370801
   6 C :    0.164639
   7 C :    0.128363
   8 C :    0.230696
   9 C :    0.052454
  10 C :    0.216202
  11 C :    0.379556
  12 H :    0.208580
  13 H :    0.190810
  14 H :    0.198219
  15 H :    0.190892
  16 H :    0.381014
  17 H :    0.389367
  18 H :    0.372423
  19 H :    0.387381

-------------------------------
LOEWDIN REDUCED ORBITAL CHARGES
-------------------------------
  0 O s       :     3.437282  s :     3.437282
      pz      :     1.650142  p :     4.616582
      px      :     1.651434
      py      :     1.315005
      dz2     :     0.093879  d :     0.547951
      dxz     :     0.084706
      dyz     :     0.116872
      dx2y2   :     0.128487
      dxy     :     0.124006

  1 O s       :     3.528100  s :     3.528100
      pz      :     1.805790  p :     4.804037
      px      :     1.443558
      py      :     1.554689
      dz2     :     0.054399  d :     0.370445
      dxz     :     0.052074
      dyz     :     0.074602
      dx2y2   :     0.096436
      dxy     :     0.092935

  2 O s       :     3.499358  s :     3.499358
      pz      :     1.654057  p :     4.740740
      px      :     1.699434
      py      :     1.387248
      dz2     :     0.045808  d :     0.309841
      dxz     :     0.043178
      dyz     :     0.082355
      dx2y2   :     0.070447
      dxy     :     0.068053

  3 O s       :     3.531359  s :     3.531359
      pz      :     1.479455  p :     4.825846
      px      :     1.549260
      py      :     1.797131
      dz2     :     0.083935  d :     0.353985
      dxz     :     0.081717
      dyz     :     0.031586
      dx2y2   :     0.072198
      dxy     :     0.084548

  4 O s       :     3.516954  s :     3.516954
      pz      :     1.701036  p :     4.763300
      px      :     1.670756
      py      :     1.391509
      dz2     :     0.061506  d :     0.274014
      dxz     :     0.053649
      dyz     :     0.041967
      dx2y2   :     0.062126
      dxy     :     0.054764

  5 O s       :     3.522571  s :     3.522571
      pz      :     1.543895  p :     4.618457
      px      :     1.592468
      py      :     1.482095
      dz2     :     0.028459  d :     0.229773
      dxz     :     0.015698
      dyz     :     0.057564
      dx2y2   :     0.063493
      dxy     :     0.064559

  6 C s       :     2.791316  s :     2.791316
      pz      :     1.027135  p :     2.896937
      px      :     0.984828
      py      :     0.884974
      dz2     :     0.027545  d :     0.147107
      dxz     :     0.029002
      dyz     :     0.026022
      dx2y2   :     0.028220
      dxy     :     0.036318

  7 C s       :     2.810778  s :     2.810778
      pz      :     1.019036  p :     2.914056
      px      :     1.008426
      py      :     0.886594
      dz2     :     0.022591  d :     0.146803
      dxz     :     0.032226
      dyz     :     0.030096
      dx2y2   :     0.030847
      dxy     :     0.031044

  8 C s       :     2.753137  s :     2.753137
      pz      :     0.947774  p :     2.845982
      px      :     0.939217
      py      :     0.958991
      dz2     :     0.018420  d :     0.170186
      dxz     :     0.021647
      dyz     :     0.036664
      dx2y2   :     0.049148
      dxy     :     0.044307

  9 C s       :     2.849777  s :     2.849777
      pz      :     1.024310  p :     2.965295
      px      :     0.886189
      py      :     1.054796
      dz2     :     0.031953  d :     0.132474
      dxz     :     0.025110
      dyz     :     0.007028
      dx2y2   :     0.031647
      dxy     :     0.036735

 10 C s       :     2.751647  s :     2.751647
      pz      :     0.944342  p :     2.872065
      px      :     0.941945
      py      :     0.985777
      dz2     :     0.029095  d :     0.160086
      dxz     :     0.026485
      dyz     :     0.032217
      dx2y2   :     0.034522
      dxy     :     0.037767

 11 C s       :     2.722995  s :     2.722995
      pz      :     0.807716  p :     2.615200
      px      :     0.848293
      py      :     0.959191
      dz2     :     0.029541  d :     0.282249
      dxz     :     0.019111
      dyz     :     0.085001
      dx2y2   :     0.057408
      dxy     :     0.091188

 12 H s       :     0.791420  s :     0.791420

 13 H s       :     0.809190  s :     0.809190

 14 H s       :     0.801781  s :     0.801781

 15 H s       :     0.809108  s :     0.809108

 16 H s       :     0.618986  s :     0.618986

 17 H s       :     0.610633  s :     0.610633

 18 H s       :     0.627577  s :     0.627577

 19 H s       :     0.612619  s :     0.612619



                      *****************************
                      * MAYER POPULATION ANALYSIS *
                      *****************************

  NA   - Mulliken gross atomic population
  ZA   - Total nuclear charge
  QA   - Mulliken gross atomic charge
  VA   - Mayer's total valence
  BVA  - Mayer's bonded valence
  FA   - Mayer's free valence

  ATOM       NA         ZA         QA         VA         BVA        FA
  0 O      8.1988     8.0000    -0.1988     2.0214     2.0214     0.0000
  1 O      8.6345     8.0000    -0.6345     1.7388     1.7388    -0.0000
  2 O      8.4825     8.0000    -0.4825     1.9938     1.9938    -0.0000
  3 O      8.5690     8.0000    -0.5690     1.7939     1.7939     0.0000
  4 O      8.5434     8.0000    -0.5434     1.9642     1.9642    -0.0000
  5 O      8.3696     8.0000    -0.3696     2.2000     2.2000    -0.0000
  6 C      6.2222     6.0000    -0.2222     3.7132     3.7132     0.0000
  7 C      5.7962     6.0000     0.2038     3.2724     3.2724    -0.0000
  8 C      6.0023     6.0000    -0.0023     4.0436     4.0436    -0.0000
  9 C      6.3008     6.0000    -0.3008     3.8267     3.8267    -0.0000
 10 C      5.7745     6.0000     0.2255     3.6806     3.6806    -0.0000
 11 C      5.6855     6.0000     0.3145     4.0463     4.0463    -0.0000
 12 H      0.7929     1.0000     0.2071     0.9255     0.9255     0.0000
 13 H      0.8245     1.0000     0.1755     0.9347     0.9347    -0.0000
 14 H      0.7998     1.0000     0.2002     0.9377     0.9377    -0.0000
 15 H      0.8063     1.0000     0.1937     0.9335     0.9335    -0.0000
 16 H      0.5498     1.0000     0.4502     0.8009     0.8009    -0.0000
 17 H      0.5559     1.0000     0.4441     0.8123     0.8123    -0.0000
 18 H      0.5420     1.0000     0.4580     0.7723     0.7723     0.0000
 19 H      0.5496     1.0000     0.4504     0.7855     0.7855    -0.0000

  Mayer bond orders larger than 0.100000
B(  0-O ,  6-C ) :   0.9790 B(  0-O , 11-C ) :   1.0444 B(  1-O ,  7-C ) :   0.9695 
B(  1-O , 16-H ) :   0.7065 B(  1-O , 17-H ) :   0.1255 B(  2-O ,  8-C ) :   1.2672 
B(  2-O , 17-H ) :   0.6751 B(  3-O ,  8-C ) :   0.1378 B(  3-O ,  9-C ) :   1.0282 
B(  3-O , 18-H ) :   0.7363 B(  4-O , 10-C ) :   1.1235 B(  4-O , 19-H ) :   0.7223 
B(  5-O , 11-C ) :   2.0552 B(  6-C ,  7-C ) :   0.8657 B(  6-C ,  8-C ) :   0.8489 
B(  6-C , 12-H ) :   0.9576 B(  7-C ,  9-C ) :   0.7909 B(  7-C , 13-H ) :   0.9398 
B(  8-C , 10-C ) :   1.6612 B(  9-C , 14-H ) :   0.9551 B(  9-C , 15-H ) :   0.9352 
B( 10-C , 11-C ) :   0.8475 


------------------
HIRSHFELD ANALYSIS
------------------

Total integrated alpha density =     46.000000756
Total integrated beta density  =     46.000000756

  ATOM     CHARGE      SPIN    
   0 O   -0.122732    0.000000
   1 O   -0.205529    0.000000
   2 O   -0.174233    0.000000
   3 O   -0.218122    0.000000
   4 O   -0.187543    0.000000
   5 O   -0.281798    0.000000
   6 C    0.055404    0.000000
   7 C    0.053717    0.000000
   8 C    0.057543    0.000000
   9 C    0.029021    0.000000
  10 C    0.024845    0.000000
  11 C    0.178971    0.000000
  12 H    0.050601    0.000000
  13 H    0.040483    0.000000
  14 H    0.035058    0.000000
  15 H    0.044222    0.000000
  16 H    0.151154    0.000000
  17 H    0.148216    0.000000
  18 H    0.148558    0.000000
  19 H    0.172164    0.000000

  TOTAL  -0.000002    0.000000

-------
TIMINGS
-------

Total SCF time: 0 days 0 hours 0 min 8 sec 

Total time                  ....       8.272 sec
Sum of individual times     ....       8.201 sec  ( 99.1%)

SCF preparation             ....       0.127 sec  (  1.5%)
Fock matrix formation       ....       6.683 sec  ( 80.8%)
  Startup                   ....       0.018 sec  (  0.3% of F)
  Split-RI-J                ....       0.918 sec  ( 13.7% of F)
  XC integration            ....       5.369 sec  ( 80.3% of F)
    XC Preparation          ....       0.000 sec  (  0.0% of XC)
    Basis function eval.    ....       1.438 sec  ( 26.8% of XC)
    Density eval.           ....       1.240 sec  ( 23.1% of XC)
    XC-Functional eval.     ....       0.180 sec  (  3.4% of XC)
    XC-Potential eval.      ....       1.354 sec  ( 25.2% of XC)
Diagonalization             ....       0.000 sec  (  0.0%)
Density matrix formation    ....       0.063 sec  (  0.8%)
Total Energy calculation    ....       0.043 sec  (  0.5%)
Population analysis         ....       0.687 sec  (  8.3%)
Orbital Transformation      ....       0.041 sec  (  0.5%)
Orbital Orthonormalization  ....       0.000 sec  (  0.0%)
DIIS solution               ....       0.408 sec  (  4.9%)
SOSCF solution              ....       0.148 sec  (  1.8%)
Finished LeanSCF after   8.3 sec

Maximum memory used throughout the entire LEANSCF-calculation: 40.6 MB


           ************************************************************
           *        Program running with 16 parallel MPI-processes    *
           *              working on a common directory               *
           ************************************************************

------------------------------------------------------------------------------
                         ORCA PROPERTY INTEGRAL CALCULATIONS
------------------------------------------------------------------------------

GBWName                                   ... m1_00_Vitamin_C-QM3_00-B97-3C-TZ.gbw
Number of atoms                           ...     20
Number of basis functions                 ...    282
Max core memory                           ...   6000 MB

Dipole integrals                          ... YES
Quadrupole integrals                      ...  NO
Linear momentum integrals                 ...  NO
Angular momentum integrals                ...  NO
Higher moments length integrals           ...  NO
Higher moments velocity integrals         ...  NO
Kinetic energy integrals                  ...  NO
GIAO right hand sides                     ...  NO
GIAO dipole derivative integrals          ...  NO
SOC integrals                             ...  NO
EPR diamagnetic integrals (GIAO)          ...  NO
EPR gauge integrals                       ...  NO
Field gradient integrals                  ...  NO (   0 nuclei)
Spin-dipole/Fermi contact integrals       ...  NO (   0 nuclei)
Contact density integrals                 ...  NO (   0 nuclei)
Nucleus-orbit integrals                   ...  NO (   0 nuclei)
Geometric perturbations                   ...  NO (  20 nuclei)

Choice of electric origin   ... Center of mass
Position of electric origin ... (  0.1236, -0.3872, -0.5779) 
Choice of magnetic origin   ... GIAO
Position of magnetic origin ... (  0.0000,  0.0000,  0.0000) 

Calculating integrals                     ... Electric Dipole (Length)     done (  0.0 sec)

Property integrals calculated in   0.0 sec

Maximum memory used throughout the entire PROPINT-calculation: 16.3 MB


-------------------------------------------------------------------------------
                          DFT DISPERSION CORRECTION                            
                                                                               
                              DFTD3 V3.1  Rev 1                                
                          USING Becke-Johnson damping                          
-------------------------------------------------------------------------------
The B97-3c composite method is recognized
Using three-body term ABC
Active option DFTDOPT                   ...         4   

molecular C6(AA) [au] = 3725.827649 


            DFT-D V3
 parameters
 s6 scaling factor         :     1.0000 
 a1 scaling factor         :     0.3700 
 s8 scaling factor         :     1.5000 
 a2 scaling factor         :     4.1000 
 Damping factor alpha9(ATM):    16.0000 
 ad hoc parameters k1-k3   :    16.0000     1.3333    -4.0000 

 Edisp/kcal,au: -30.573519823973  -0.048721999948 
 E6   /kcal   : -15.715842227 
 E8   /kcal   : -14.944624753 
 E6(ABC)      :   0.086947156 
 % E8         :  48.880942851 
 % E6(ABC)    :  -0.284387132 

-------------------------   ----------------
Dispersion correction           -0.048722000
-------------------------   ----------------

------------------   -----------------
SRB correction            -0.059586926
------------------   -----------------

-------------------------   --------------------
FINAL SINGLE POINT ENERGY      -684.495700011093
-------------------------   --------------------



           ************************************************************
           *        Program running with 16 parallel MPI-processes    *
           *              working on a common directory               *
           ************************************************************
------------------------------------------------------------------------------
                         ORCA SCF GRADIENT CALCULATION
------------------------------------------------------------------------------

Nuc. rep. gradient        (SHARK) ... done (  0.0 sec)
HCore & Overlap gradient  (SHARK) ... done (  0.1 sec)
Split-RIJ-J gradient      (SHARK) ... done (  0.2 sec)
XC gradient                       ... done (  2.4 sec)
Dispersion correction             ... done (  0.1 sec)

-------------------
DISPERSION GRADIENT
-------------------

   1   O   :    0.000855410   -0.000405929   -0.000105451
   2   O   :    0.000060293    0.000977916    0.000421165
   3   O   :   -0.000456809    0.000726508   -0.000917750
   4   O   :   -0.001013232   -0.000148088    0.000749318
   5   O   :   -0.000484101   -0.000412775   -0.000670648
   6   O   :    0.000425242   -0.000868401   -0.000024568
   7   C   :    0.000902556    0.000314446   -0.000226836
   8   C   :    0.000413515    0.000572764    0.000883889
   9   C   :    0.000018607    0.000368002   -0.001161207
  10   C   :   -0.000461403   -0.000105476    0.001321432
  11   C   :   -0.000116150   -0.000700744   -0.001150856
  12   C   :    0.000640629   -0.001052920   -0.000492629
  13   H   :    0.000614802    0.000327257   -0.000150086
  14   H   :    0.000408403    0.000216190    0.000425986
  15   H   :   -0.000166978   -0.000372848    0.000711044
  16   H   :   -0.000115156   -0.000126535    0.000495972
  17   H   :   -0.000271193    0.000540263    0.000303287
  18   H   :   -0.000197737    0.000589322   -0.000355792
  19   H   :   -0.000835320   -0.000159722    0.000221951
  20   H   :   -0.000221378   -0.000279230   -0.000278221

Difference to translation invariance:
           :   -0.0000000000    0.0000000000   -0.0000000000

Difference to rotation invariance:
           :    0.0000000000    0.0000000000    0.0000000000

Norm of the Dispersion gradient    ...    0.0044846225
RMS gradient                       ...    0.0005789623
MAX gradient                       ...    0.0013214319
SRB correction                   ... done

------------------
CARTESIAN GRADIENT
------------------

   1   O   :   -0.027489967    0.004169203   -0.018646925
   2   O   :   -0.001994621   -0.018643208    0.001736506
   3   O   :    0.009823453   -0.005817932    0.012185049
   4   O   :    0.018451837   -0.003012087   -0.004888135
   5   O   :    0.000175932   -0.002434992    0.000023750
   6   O   :   -0.007619373    0.022401745   -0.001272203
   7   C   :    0.001391554   -0.008501303    0.012378216
   8   C   :   -0.009491887    0.009759883   -0.014437258
   9   C   :   -0.002963526   -0.000546192   -0.000704112
  10   C   :   -0.010791046    0.005030836   -0.007684367
  11   C   :   -0.003950223    0.013433813    0.000420641
  12   C   :    0.027986516   -0.020386948    0.019152434
  13   H   :   -0.000150857    0.002086778   -0.001035834
  14   H   :    0.003829875   -0.001389323    0.000422105
  15   H   :    0.000849322    0.000191156   -0.000629367
  16   H   :    0.001294708    0.000775439    0.003167720
  17   H   :    0.003553291    0.002224863   -0.000620147
  18   H   :   -0.000895334   -0.004947841   -0.002667237
  19   H   :   -0.001751242    0.002114075    0.002017082
  20   H   :   -0.000258414    0.003492035    0.001082082

Difference to translation invariance:
           :   -0.0000000000    0.0000000000   -0.0000000000

Difference to rotation invariance:
           :    0.0000854491    0.0000300222    0.0000055613

Norm of the Cartesian gradient     ...    0.0734826845
RMS gradient                       ...    0.0094865738
MAX gradient                       ...    0.0279865164

-------
TIMINGS
-------

Total SCF gradient time     ....        2.770 sec

Densities                   ....       0.001 sec  (  0.1%)
One electron gradient       ....       0.060 sec  (  2.2%)
RI-J Coulomb gradient       ....       0.221 sec  (  8.0%)
XC gradient                 ....       2.412 sec  ( 87.1%)

Maximum memory used throughout the entire SCFGRAD-calculation: 49.0 MB
------------------------------------------------------------------------------
                         ORCA GEOMETRY RELAXATION STEP
------------------------------------------------------------------------------

Reading the OPT-File                    .... done
Getting information on internals        .... done
Copying old internal coords+grads       .... done
Making the new internal coordinates     .... (2022 redundants) done
Validating the new internal coordinates .... (2022 redundants) done
Calculating the B-matrix                .... done
Calculating the G,G- and P matrices     .... done
Transforming gradient to internals      .... done
Projecting the internal gradient        .... done
Number of atoms                         ....  20
Number of internal coordinates          ....  95
Current Energy                          ....  -684.495700011 Eh
Current gradient norm                   ....     0.073482685 Eh/bohr
Maximum allowed component of the step   ....  0.300
Current trust radius                    ....  0.300
Evaluating the initial hessian          ....  (Almloef) done
Projecting the Hessian                  .... done
Forming the augmented Hessian           .... done
Diagonalizing the augmented Hessian     .... done
Last element of RFO vector              ....  0.959904270
Lowest eigenvalues of augmented Hessian:
 -0.009444820  0.011455936  0.013010998  0.018391507  0.020159153
Length of the computed step             ....  0.292037463
The final length of the internal step   ....  0.292037463
Converting the step to Cartesian space:
 Initial RMS(Int)=    0.0299624115
Transforming coordinates:
 Iter   0:  RMS(Cart)=    0.1387171639 RMS(Int)=    0.9088899492
 Iter   5:  RMS(Cart)=    0.0000008085 RMS(Int)=    0.0000005551
done
Storing new coordinates                 .... done

                                .--------------------.
          ----------------------|Geometry convergence|-------------------------
          Item                value                   Tolerance       Converged
          ---------------------------------------------------------------------
          RMS gradient        0.0060661209            0.0000300000      NO
          MAX gradient        0.0231241332            0.0001000000      NO
          RMS step            0.0299624115            0.0020000000      NO
          MAX step            0.1192178491            0.0040000000      NO
          ........................................................
          Max(Bonds)      0.0631      Max(Angles)    2.53
          Max(Dihed)        5.24      Max(Improp)    0.00
          ---------------------------------------------------------------------

The optimization has not yet converged - more geometry cycles are needed


    ---------------------------------------------------------------------------
                         Redundant Internal Coordinates
                            (Angstroem and degrees)

        Definition                    Value    dE/dq     Step     New-Value
    ----------------------------------------------------------------------------
     1. B(C   6,O   0)                1.4043 -0.014527  0.0138    1.4181   
     2. B(C   7,C   6)                1.5113 -0.017260  0.0241    1.5354   
     3. B(C   7,O   1)                1.4037 -0.014214  0.0155    1.4192   
     4. B(C   8,C   6)                1.4850 -0.008814  0.0114    1.4964   
     5. B(C   8,O   2)                1.3253 -0.014226  0.0109    1.3362   
     6. B(C   9,C   7)                1.5183 -0.009112  0.0152    1.5335   
     7. B(C   9,O   3)                1.3976 -0.013543  0.0135    1.4111   
     8. B(C  10,C   8)                1.3319 -0.010613  0.0072    1.3391   
     9. B(C  10,O   4)                1.3488 -0.000702  0.0009    1.3496   
    10. B(C  11,C  10)                1.4748  0.006917 -0.0066    1.4682   
    11. B(C  11,O   5)                1.1945 -0.023124  0.0106    1.2052   
    12. B(C  11,O   0)                1.3431 -0.021273  0.0170    1.3600   
    13. B(H  12,C   6)                1.0962  0.001572 -0.0023    1.0939   
    14. B(H  13,C   7)                1.0998  0.003229 -0.0048    1.0950   
    15. B(H  14,C   9)                1.0912  0.000143 -0.0002    1.0910   
    16. B(H  15,C   9)                1.0944  0.003167 -0.0046    1.0897   
    17. B(H  16,O   3)                2.0764 -0.003272  0.0133    2.0897   
    18. B(H  16,O   1)                0.9666 -0.005185  0.0040    0.9707   
    19. B(H  17,O   1)                1.9382 -0.004669  0.0631    2.0013   
    20. B(H  17,O   2)                0.9697 -0.008976  0.0079    0.9776   
    21. B(H  18,O   3)                0.9620 -0.002562  0.0026    0.9646   
    22. B(H  19,O   5)                2.4077 -0.000491  0.0017    2.4094   
    23. B(H  19,O   4)                0.9669 -0.003621  0.0035    0.9705   
    24. A(C   6,O   0,C  11)          110.75  0.009570   -1.27    109.48   
    25. A(C   7,O   1,H  16)          106.84  0.008380   -0.63    106.21   
    26. A(C   8,O   2,H  17)          106.44  0.002731   -0.12    106.33   
    27. A(C   9,O   3,H  18)          110.43  0.003946   -0.61    109.82   
    28. A(C  10,O   4,H  19)          105.76 -0.001329    0.32    106.08   
    29. A(O   0,C   6,C   8)          105.01 -0.001325    0.34    105.35   
    30. A(C   7,C   6,C   8)          111.79 -0.004931    2.21    114.00   
    31. A(O   0,C   6,H  12)          109.38  0.001486   -0.99    108.39   
    32. A(C   8,C   6,H  12)          110.69  0.002003   -0.70    109.99   
    33. A(O   0,C   6,C   7)          110.89  0.000300    0.01    110.90   
    34. A(C   7,C   6,H  12)          109.02  0.002449   -0.88    108.14   
    35. A(C   6,C   7,C   9)          112.57 -0.014066    2.53    115.10   
    36. A(C   9,C   7,H  13)          109.04  0.003005   -1.07    107.97   
    37. A(C   6,C   7,H  13)          107.10  0.002298   -0.59    106.51   
    38. A(O   1,C   7,H  13)          110.19 -0.001138   -0.92    109.27   
    39. A(O   1,C   7,C   6)          108.05  0.006933   -0.58    107.46   
    40. A(O   1,C   7,C   9)          109.85  0.002984    0.57    110.41   
    41. A(O   2,C   8,C   6)          121.04  0.000805    0.44    121.48   
    42. A(C   6,C   8,C  10)          108.57 -0.000820   -0.16    108.41   
    43. A(O   2,C   8,C  10)          130.30 -0.000037   -0.16    130.14   
    44. A(H  14,C   9,H  15)          107.44  0.000701   -0.73    106.70   
    45. A(O   3,C   9,H  15)          106.85  0.004054   -1.07    105.78   
    46. A(C   7,C   9,H  14)          109.85  0.000834    0.06    109.91   
    47. A(O   3,C   9,H  14)          113.03  0.000992    0.08    113.11   
    48. A(O   3,C   9,C   7)          110.82 -0.007662    2.06    112.88   
    49. A(C   7,C   9,H  15)          108.66  0.001498   -0.56    108.10   
    50. A(C   8,C  10,C  11)          108.00 -0.000677    0.14    108.14   
    51. A(O   4,C  10,C  11)          121.49  0.001020   -0.06    121.43   
    52. A(O   4,C  10,C   8)          130.48 -0.000355   -0.06    130.42   
    53. A(O   0,C  11,O   5)          125.92  0.007981   -1.07    124.85   
    54. A(O   5,C  11,C  10)          126.47 -0.001302    0.12    126.59   
    55. A(O   0,C  11,C  10)          107.61 -0.006693    0.96    108.57   
    56. D(C   7,C   6,O   0,C  11)    118.47 -0.005328    2.81    121.29   
    57. D(C   8,C   6,O   0,C  11)     -2.44  0.001226   -0.05     -2.49   
    58. D(H  12,C   6,O   0,C  11)   -121.26 -0.001136    1.08   -120.18   
    59. D(C   9,C   7,C   6,H  12)   -177.58 -0.002311    3.73   -173.85   
    60. D(O   1,C   7,C   6,C   8)    -61.75 -0.002824    1.84    -59.92   
    61. D(C   9,C   7,C   6,C   8)     59.72 -0.003267    3.76     63.48   
    62. D(C   9,C   7,O   1,H  16)     -5.15  0.006319   -2.43     -7.58   
    63. D(H  13,C   7,O   1,H  16)   -125.31  0.001422   -0.88   -126.18   
    64. D(C   6,C   7,O   1,H  16)    117.99 -0.004699    0.68    118.67   
    65. D(O   1,C   7,C   6,O   0)   -178.57  0.001743    0.02   -178.55   
    66. D(O   1,C   7,C   6,H  12)     60.94 -0.001868    1.81     62.75   
    67. D(C   9,C   7,C   6,O   0)    -57.10  0.001300    1.94    -55.16   
    68. D(O   2,C   8,C   6,O   0)    179.38 -0.001793    1.75    181.13   
[...]
     27       0.014631  -0.012434  -0.000351   0.001135  -0.000022   0.001045
     28      -0.054942   0.058007   0.000554  -0.000925   0.000020  -0.001217
     29       0.033435   0.073958  -0.000163   0.000336  -0.000076  -0.002243
     30      -0.000184  -0.000074  -0.000844  -0.000412   0.000309  -0.000139
     31      -0.000017  -0.000160   0.001465   0.000705  -0.002674  -0.000256
     32      -0.000148  -0.000071  -0.000563  -0.000233  -0.000517  -0.000157
     33       0.000240  -0.000036   0.000819   0.000580  -0.000088   0.000309
     34      -0.000059  -0.000245  -0.000571  -0.000049   0.002195  -0.000120
     35       0.000152  -0.000133   0.000567   0.000433   0.000559   0.000283
     36      -0.042092  -0.009933   0.000031  -0.000844   0.001053  -0.000133
     37      -0.033693  -0.008223  -0.000766  -0.001143  -0.000220  -0.000151
     38       0.020273   0.004385   0.001247   0.001451   0.000057  -0.000770
     39      -0.235170  -0.049291  -0.001885   0.007969   0.000350   0.001136
     40      -0.035943  -0.008640  -0.000433  -0.003594   0.000391   0.000945
     41      -0.167677  -0.036430  -0.004296   0.007327   0.000707  -0.000886
     42      -0.202194   0.134673   0.002148  -0.005856   0.000064   0.002184
     43       0.765686  -0.526828  -0.004587   0.002007  -0.000059   0.003591
     44       0.113525  -0.063311   0.001016  -0.000675  -0.000086   0.003132
     45       0.007275   0.012363   0.000620  -0.000427  -0.000037  -0.000331
     46      -0.115896  -0.163009  -0.000362   0.000962   0.000091   0.004380
     47      -0.503349  -0.812469  -0.000691  -0.001915   0.000533   0.016776
     48      -0.002437   0.003217  -0.486098   0.844105  -0.000810  -0.039433
     49       0.006571  -0.000938  -0.038149   0.072234  -0.000317  -0.006886
     50       0.002117   0.002902   0.095008  -0.172350   0.000004   0.007334
     51       0.000375  -0.000323   0.164318   0.096119  -0.004086   0.001757
     52       0.002157  -0.001926   0.681628   0.388114  -0.016698   0.007876
     53      -0.000282  -0.001168   0.506389   0.296054  -0.012215   0.007195
     54       0.000896  -0.007919  -0.004704   0.004172   0.001660   0.122557
     55       0.003708   0.007441  -0.014810   0.015034   0.004015   0.411220
     56       0.005180   0.017021  -0.025460   0.025993   0.008119   0.899883
     57      -0.000125  -0.000166  -0.005153  -0.002841  -0.252517   0.002343
     58       0.000623   0.000263   0.017530   0.010586   0.962141  -0.008666
     59       0.000066  -0.000093   0.001093   0.000706   0.078373  -0.000691


-----------
IR SPECTRUM
-----------

 Mode   freq       eps      Int      T**2         TX        TY        TZ
       cm**-1   L/(mol*cm) km/mol    a.u.
----------------------------------------------------------------------------
  6:     57.36   0.000476    2.41  0.002591  ( 0.050428  0.006721 -0.001694)
  7:     79.18   0.000244    1.23  0.000962  (-0.003838 -0.001811 -0.030731)
  8:    128.43   0.000626    3.16  0.001521  ( 0.020847  0.014853  0.029431)
  9:    138.97   0.000513    2.59  0.001153  ( 0.023279  0.014839 -0.019767)
 10:    180.47   0.001146    5.79  0.001982  ( 0.008568  0.000321  0.043681)
 11:    252.79   0.003832   19.36  0.004730  ( 0.040836 -0.000188  0.055341)
 12:    258.11   0.002684   13.56  0.003245  ( 0.000426  0.041375  0.039150)
 13:    292.00   0.000885    4.47  0.000946  (-0.000897  0.029994 -0.006749)
 14:    320.75   0.000591    2.99  0.000575  (-0.011564 -0.018994  0.008955)
 15:    331.07   0.001491    7.54  0.001406  (-0.009978 -0.032871 -0.015020)
 16:    385.65   0.000737    3.72  0.000596  (-0.000376  0.003810 -0.024114)
 17:    424.28   0.008275   41.82  0.006086  (-0.023224 -0.056921 -0.048030)
 18:    450.47   0.007091   35.84  0.004912  (-0.050898 -0.019385  0.044113)
 19:    494.31   0.005862   29.63  0.003701  ( 0.039629  0.017996 -0.042504)
 20:    501.28   0.037065  187.31  0.023074  ( 0.073912  0.048819 -0.123401)
 21:    558.56   0.000356    1.80  0.000199  (-0.006313  0.012473  0.001835)
 22:    589.33   0.008949   45.22  0.004739  ( 0.023505 -0.004605 -0.064536)
 23:    629.01   0.001402    7.08  0.000695  ( 0.018204  0.013686 -0.013290)
 24:    680.55   0.002472   12.49  0.001134  (-0.003584  0.033299  0.003467)
 25:    734.93   0.004738   23.94  0.002012  ( 0.003731 -0.044693 -0.000688)
 26:    737.48   0.002540   12.84  0.001075  ( 0.012443 -0.010278 -0.028540)
 27:    750.20   0.005633   28.47  0.002343  ( 0.027004  0.040086 -0.002685)
 28:    804.38   0.000667    3.37  0.000259  ( 0.010432 -0.012244 -0.000287)
 29:    833.25   0.002167   10.95  0.000811  (-0.023744  0.013762 -0.007636)
 30:    950.29   0.003332   16.84  0.001094  ( 0.011290  0.027407 -0.014679)
 31:    967.78   0.002415   12.20  0.000779  ( 0.024673  0.011744 -0.005657)
 32:   1035.89   0.025439  128.56  0.007664  ( 0.021397 -0.080342 -0.027402)
 33:   1047.54   0.008411   42.51  0.002506  ( 0.039459  0.018921  0.024306)
 34:   1063.83   0.012996   65.67  0.003812  (-0.050862  0.034877 -0.002963)
 35:   1090.07   0.009775   49.40  0.002798  (-0.012518 -0.035380 -0.037281)
 36:   1130.57   0.025287  127.79  0.006980  ( 0.052015  0.037610  0.053477)
 37:   1191.52   0.010580   53.47  0.002771  (-0.047555 -0.013309 -0.018230)
 38:   1212.41   0.003737   18.89  0.000962  ( 0.010984 -0.012174  0.026327)
 39:   1252.79   0.003766   19.03  0.000938  ( 0.000649 -0.030060  0.005826)
 40:   1301.57   0.015915   80.43  0.003816  ( 0.042405 -0.014128  0.042637)
 41:   1320.45   0.004589   23.19  0.001085  (-0.020377  0.024223 -0.009089)
 42:   1339.03   0.021959  110.97  0.005118  (-0.047366  0.026702 -0.046488)
 43:   1370.12   0.022677  114.60  0.005165  ( 0.028880  0.047637  0.045406)
 44:   1374.42   0.005583   28.21  0.001268  (-0.003662  0.017910  0.030553)
 45:   1392.32   0.007680   38.81  0.001721  ( 0.010252 -0.039870  0.005150)
 46:   1413.18   0.006263   31.65  0.001383  (-0.035939  0.008544  0.004284)
 47:   1439.25   0.036416  184.03  0.007896  (-0.017969  0.086886 -0.004875)
 48:   1451.68   0.007856   39.70  0.001689  (-0.005268  0.037469 -0.016035)
 49:   1500.38   0.002082   10.52  0.000433  (-0.008713 -0.011093  0.015301)
 50:   1755.77   0.083434  421.64  0.014829  (-0.045143  0.113099  0.000266)
 51:   1808.03   0.045171  228.27  0.007796  (-0.001440  0.081915  0.032927)
 52:   2998.22   0.003087   15.60  0.000321  (-0.000708 -0.016164  0.007714)
 53:   3009.98   0.006002   30.33  0.000622  (-0.020333 -0.012618 -0.007047)
 54:   3026.96   0.006965   35.20  0.000718  ( 0.013970 -0.010188  0.020473)
 55:   3076.70   0.004240   21.43  0.000430  (-0.000967  0.010875  0.017630)
 56:   3571.35   0.036889  186.42  0.003223  (-0.017768  0.036613  0.039588)
 57:   3591.09   0.020986  106.05  0.001824  ( 0.030418  0.028681  0.008705)
 58:   3657.54   0.014264   72.08  0.001217  (-0.005840  0.033699  0.006876)
 59:   3717.41   0.007148   36.12  0.000600  ( 0.002926  0.008454  0.022803)

* The epsilon (eps) is given for a Dirac delta lineshape.
** The dipole moment derivative (T) already includes vibrational overlap.

The first frequency considered to be a vibration is 6
The total number of vibrations considered is 54


--------------------------
THERMOCHEMISTRY AT 298.15K
--------------------------

Temperature         ...   298.15 K
Pressure            ...     1.00 atm
Total Mass          ...   176.12 AMU
Quasi RRHO          ...     True
Cut-Off Frequency   ...     1.00 cm^-1

Throughout the following assumptions are being made:
  (1) The electronic state is orbitally nondegenerate
  (2) There are no thermally accessible electronically excited states
  (3) Hindered rotations indicated by low frequency modes are not
      treated as such but are treated as vibrations and this may
      cause some error
  (4) All equations used are the standard statistical mechanics
      equations for an ideal gas
  (5) All vibrations are strictly harmonic

freq.      57.36  E(vib)   ...       0.51 
freq.      79.18  E(vib)   ...       0.49 
freq.     128.43  E(vib)   ...       0.43 
freq.     138.97  E(vib)   ...       0.42 
freq.     180.47  E(vib)   ...       0.37 
freq.     252.79  E(vib)   ...       0.30 
freq.     258.11  E(vib)   ...       0.30 
freq.     292.00  E(vib)   ...       0.27 
freq.     320.75  E(vib)   ...       0.25 
freq.     331.07  E(vib)   ...       0.24 
freq.     385.65  E(vib)   ...       0.20 
freq.     424.28  E(vib)   ...       0.18 
freq.     450.47  E(vib)   ...       0.17 
freq.     494.31  E(vib)   ...       0.14 
freq.     501.28  E(vib)   ...       0.14 
freq.     558.56  E(vib)   ...       0.12 
freq.     589.33  E(vib)   ...       0.10 
freq.     629.01  E(vib)   ...       0.09 
freq.     680.55  E(vib)   ...       0.08 
freq.     734.93  E(vib)   ...       0.06 
freq.     737.48  E(vib)   ...       0.06 
freq.     750.20  E(vib)   ...       0.06 
freq.     804.38  E(vib)   ...       0.05 
freq.     833.25  E(vib)   ...       0.04 
freq.     950.29  E(vib)   ...       0.03 
freq.     967.78  E(vib)   ...       0.03 
freq.    1035.89  E(vib)   ...       0.02 
freq.    1047.54  E(vib)   ...       0.02 
freq.    1063.83  E(vib)   ...       0.02 
freq.    1090.07  E(vib)   ...       0.02 
freq.    1130.57  E(vib)   ...       0.01 
freq.    1191.52  E(vib)   ...       0.01 
freq.    1212.41  E(vib)   ...       0.01 
freq.    1252.79  E(vib)   ...       0.01 
freq.    1301.57  E(vib)   ...       0.01 
freq.    1320.45  E(vib)   ...       0.01 
freq.    1339.03  E(vib)   ...       0.01 
freq.    1370.12  E(vib)   ...       0.01 
freq.    1374.42  E(vib)   ...       0.01 
freq.    1392.32  E(vib)   ...       0.00 
freq.    1413.18  E(vib)   ...       0.00 
freq.    1439.25  E(vib)   ...       0.00 
freq.    1451.68  E(vib)   ...       0.00 
freq.    1500.38  E(vib)   ...       0.00 
freq.    1755.77  E(vib)   ...       0.00 
freq.    1808.03  E(vib)   ...       0.00 
freq.    2998.22  E(vib)   ...       0.00 
freq.    3009.98  E(vib)   ...       0.00 
freq.    3026.96  E(vib)   ...       0.00 
freq.    3076.70  E(vib)   ...       0.00 
freq.    3571.35  E(vib)   ...       0.00 
freq.    3591.09  E(vib)   ...       0.00 
freq.    3657.54  E(vib)   ...       0.00 
freq.    3717.41  E(vib)   ...       0.00 

------------
INNER ENERGY
------------

The inner energy is: U= E(el) + E(ZPE) + E(vib) + E(rot) + E(trans)
    E(el)   - is the total energy from the electronic structure calculation
              = E(kin-el) + E(nuc-el) + E(el-el) + E(nuc-nuc)
    E(ZPE)  - the the zero temperature vibrational energy from the frequency calculation
    E(vib)  - the the finite temperature correction to E(ZPE) due to population
              of excited vibrational states
    E(rot)  - is the rotational thermal energy
    E(trans)- is the translational thermal energy

Summary of contributions to the inner energy U:
Electronic energy                ...   -684.50161058 Eh
Zero point energy                ...      0.14960932 Eh      93.88 kcal/mol
Thermal vibrational correction   ...      0.00843134 Eh       5.29 kcal/mol
Thermal rotational correction    ...      0.00141627 Eh       0.89 kcal/mol
Thermal translational correction ...      0.00141627 Eh       0.89 kcal/mol
-----------------------------------------------------------------------
Total thermal energy                   -684.34073739 Eh


Summary of corrections to the electronic energy:
(perhaps to be used in another calculation)
Total thermal correction                  0.01126388 Eh       7.07 kcal/mol
Non-thermal (ZPE) correction              0.14960932 Eh      93.88 kcal/mol
-----------------------------------------------------------------------
Total correction                          0.16087320 Eh     100.95 kcal/mol


--------
ENTHALPY
--------

The enthalpy is H = U + kB*T
                kB is Boltzmann's constant
Total thermal energy              ...   -684.34073739 Eh 
Thermal Enthalpy correction       ...      0.00094421 Eh       0.59 kcal/mol
-----------------------------------------------------------------------
Total Enthalpy                    ...   -684.33979318 Eh


Note: Only C1 symmetry has been detected, increase convergence thresholds 
      if your molecule has a higher symmetry. Symmetry factor of 1.0 is   
      used for the rotational entropy correction. 
 

Note: Rotational entropy computed according to Herzberg 
Infrared and Raman Spectra, Chapter V,1, Van Nostrand Reinhold, 1945 
Point Group:  C1, Symmetry Number:   1  
Rotational constants in cm-1:     0.047607     0.025725     0.022612 

Vibrational entropy computed according to the QRRHO of S. Grimme
Chem.Eur.J. 2012 18 9955 using a reference frequency of 100.0 cm-1


-------
ENTROPY
-------

The entropy contributions are T*S = T*(S(el)+S(vib)+S(rot)+S(trans))
     S(el)   - electronic entropy
     S(vib)  - vibrational entropy
     S(rot)  - rotational entropy
     S(trans)- translational entropy
The entropies will be listed as multiplied by the temperature to get
units of energy

Electronic entropy                ...      0.00000000 Eh      0.00 kcal/mol
Vibrational entropy               ...      0.01426659 Eh      8.95 kcal/mol
Rotational entropy                ...      0.01446510 Eh      9.08 kcal/mol
Translational entropy             ...      0.01967288 Eh     12.34 kcal/mol
-----------------------------------------------------------------------
Final entropy term                ...      0.04840456 Eh     30.37 kcal/mol

In case the symmetry of your molecule has not been determined correctly
or in case you have a reason to use a different symmetry number we print 
out the resulting rotational entropy values for sn=1,12:

 non-linear molecules -----------------------------------
|  sn= 1 | S(rot)=       0.01446510 Eh      9.08 kcal/mol|
|  sn= 2 | S(rot)=       0.01381064 Eh      8.67 kcal/mol|
|  sn= 3 | S(rot)=       0.01342781 Eh      8.43 kcal/mol|
|  sn= 4 | S(rot)=       0.01315619 Eh      8.26 kcal/mol|
|  sn= 5 | S(rot)=       0.01294550 Eh      8.12 kcal/mol|
|  sn= 6 | S(rot)=       0.01277336 Eh      8.02 kcal/mol|
|  sn= 7 | S(rot)=       0.01262781 Eh      7.92 kcal/mol|
|  sn= 8 | S(rot)=       0.01250173 Eh      7.84 kcal/mol|
|  sn= 9 | S(rot)=       0.01239052 Eh      7.78 kcal/mol|
|  sn=10 | S(rot)=       0.01229104 Eh      7.71 kcal/mol|
|  sn=11 | S(rot)=       0.01220105 Eh      7.66 kcal/mol|
|  sn=12 | S(rot)=       0.01211890 Eh      7.60 kcal/mol|
 linear molecules ---------------------------------------
|  Dinfh | S(rot)=       0.00890357 Eh      5.59 kcal/mol|
|  Cinfv | S(rot)=       0.00955803 Eh      6.00 kcal/mol|
 --------------------------------------------------------


-------------------
GIBBS FREE ENERGY
-------------------

The Gibbs free energy is G = H - T*S

Total enthalpy                    ...   -684.33979318 Eh 
Total entropy correction          ...     -0.04840456 Eh    -30.37 kcal/mol
-----------------------------------------------------------------------
Final Gibbs free energy         ...   -684.38819774 Eh

For completeness - the Gibbs free energy minus the electronic energy
G-E(el)                           ...      0.11341284 Eh     71.17 kcal/mol


Maximum memory used throughout the entire PROP-calculation: 68.0 MB

--------------------------------
SUGGESTED CITATIONS FOR THIS RUN
--------------------------------

Below you find a list of papers that are relevant to this ORCA run
We neither can nor want to force you to cite these papers, but we appreciate if you do
You receive ORCA, which is the product of decades of hard work by many enthusiastic individuals, for free
The only thing we kindly ask in return is that you cite our papers,
We deeply appreciate it, if you show your appreciation for ORCA by not just citing the generic ORCA reference.

Please note that relegating all ORCA citations to the supporting information does *not* help us.
SI sections are not indexed - citations you put there will not count into any citation statistics
But we need these citations in order to attract the funding resources that allow us to do what we are doing

Therefore, if you are a happy ORCA user, please consider citing a few of the papers listed below in the main body of your paper

In addition to the list printed below, the program has created the file m1_00_Vitamin_C-QM3_00-B97-3C-TZ.bibtex that contains the list in bibtex format
You can import this file easily into all common literature databanks and citation aid programs


List of essential papers. We consider these as the minimum necessary citations

  1. Neese,F.
     Software update: the ORCA program system, version 5.0
     WIRES Comput. Molec. Sci., 2022 12(1)e1606
     doi.org/10.1002/wcms.1606

List of papers to cite with high priority. The work reported in these papers was absolutely
necessary for this run to complete.
Our perspective: the developers of density functionals and basis sets usually get cited in chemistry papers
Good! But without the algorithms to do something with them, the functionals or basis sets would not do anything.
Hence, in our opinion, the algorithm design and method developments papers are equally worthy of getting cited

  1. Neese,F.
     An improvement of the resolution of the identity approximation for the formation of the Coulomb matrix
     J. Comp. Chem., 2003 24(14)1740-1747
     doi.org/10.1002/jcc.10318
  2. Bykov,D.; Petrenko,T.; Izsak,R.; Kossmann,S.; Becker,U.; Valeev,E.; Neese,F.
     Efficient implementation of the analytic second derivatives of Hartree-Fock and hybrid DFT energies: a detailed analysis of different approximations
     Molec. Phys., 2015 113 1961-1977
     doi.org/10.1080/00268976.2015.1025114
  3. Neese,F.
     The SHARK Integral Generation and Digestion System
     J. Comp. Chem., 2022  1-16
     doi.org/10.1002/jcc.26942
  4. Grimme,S.; Antony,J.; Ehrlich,S.; Krieg,H.
     A consistent and accurate ab initio parametrization of density functional dispersion correction (DFT-D) for the 94 elements H-Pu
     J. Chem. Phys., 2010 132 154104
     doi.org/10.1063/1.3382344
  5. Grimme,S.; Ehrlich,S.; Goerigk,L.
     Effect of the damping function in dispersion corrected density functional theory
     J. Comput. Chem., 2011 32(7)1456-1465
     doi.org/10.1002/jcc.21759

List of suggested additional citations. These are papers that are important in the 'surrounding' of 
of this run, or papers that preceded the highly important papers. If you like your results we are grateful for a citation.

  1. Neese,F.
     The ORCA program system
     WIRES Comput. Molec. Sci., 2012 2(1)73-78
     doi.org/10.1002/wcms.81
  2. Neese,F.
     Software update: the ORCA program system, version 4.0
     WIRES Comput. Molec. Sci., 2018 8(1)1-6
     doi.org/10.1002/wcms.1327
  3. Neese,F.; Wennmohs,F.; Becker,U.; Riplinger,C.
     The ORCA quantum chemistry program package
     J. Chem. Phys., 2020 152 Art. No. L224108
     doi.org/10.1063/5.0004608

List of optional additional citations

  1. Neese,F.
     Approximate second-order SCF convergence for spin unrestricted wavefunctions
     Chem. Phys. Lett., 2000 325(1-3)93-98
     doi.org/10.1016/s0009-2614(00)00662-x

Timings for individual modules:

Sum of individual times          ...      284.299 sec (=   4.738 min)
Startup calculation              ...       48.980 sec (=   0.816 min)  17.2 %
SCF iterations                   ...       65.727 sec (=   1.095 min)  23.1 %
Property integrals               ...       62.919 sec (=   1.049 min)  22.1 %
SCF Response                     ...       38.805 sec (=   0.647 min)  13.6 %
Property calculations            ...       28.394 sec (=   0.473 min)  10.0 %
SCF Gradient evaluation          ...       39.334 sec (=   0.656 min)  13.8 %
Geometry relaxation              ...        0.140 sec (=   0.002 min)   0.0 %
                             ****ORCA TERMINATED NORMALLY****
TOTAL RUN TIME: 0 days 0 hours 4 minutes 47 seconds 161 msec
