
                                 *****************
                                 * O   R   C   A *
                                 *****************

                                            #,                                       
                                            ###                                      
                                            ####                                     
                                            #####                                    
                                            ######                                   
                                           ########,                                 
                                     ,,################,,,,,                         
                               ,,#################################,,                 
                          ,,##########################################,,             
                       ,#########################################, ''#####,          
                    ,#############################################,,   '####,        
                  ,##################################################,,,,####,       
                ,###########''''           ''''###############################       
              ,#####''   ,,,,##########,,,,          '''####'''          '####       
            ,##' ,,,,###########################,,,                        '##       
           ' ,,###''''                  '''############,,,                           
         ,,##''                                '''############,,,,        ,,,,,,###''
      ,#''                                            '''#######################'''  
     '                                                          ''''####''''         
             ,#######,   #######,   ,#######,      ##                                
            ,#'     '#,  ##    ##  ,#'     '#,    #''#        ,####,   ,####,        
            ##       ##  ##   ,#'  ##            #'  '#       #'       #'  '#        
            ##       ##  #######   ##           ,######,      #####,   #    #        
            '#,     ,#'  ##    ##  '#,     ,#' ,#      #,     #,   #   #,  ,#        
             '#######'   ##     ##  '#######'  #'      '#     '####' # '####'        



                #########################################################
                #                        -***-                          #
                #          Department of theory and spectroscopy        #
                #                                                       #
                #                      Frank Neese                      #
                #                                                       #
                #     Directorship, Architecture, Infrastructure        #
                #                    SHARK, DRIVERS                     #
                #        Core code/Algorithms in most modules           #
                #                                                       #
                #        Max Planck Institute fuer Kohlenforschung      #
                #                Kaiser Wilhelm Platz 1                 #
                #                 D-45470 Muelheim/Ruhr                 #
                #                      Germany                          #
                #                                                       #
                #                  All rights reserved                  #
                #                        -***-                          #
                #########################################################


                         Program Version 6.0.1  -  RELEASE   -


 With contributions from (in alphabetic order):
[Max-Planck-Institut fuer Kohlenforschung]                               
  Daniel Aravena         : Magnetic Suceptibility                        
  Michael Atanasov       : Ab Initio Ligand Field Theory (pilot matlab implementation)
  Alexander A. Auer      : GIAO ZORA, VPT2 properties, NMR spectrum      
  Ute Becker             : All parallelization in ORCA, NUMFREQ, NUMCALC 
  Giovanni Bistoni       : ED, misc. LED, open-shell LED, HFLD           
  Martin Brehm           : Molecular dynamics                            
  Dmytro Bykov           : pre 5.0 version of the SCF Hessian            
  Marcos Casanova-Páez   : Triplet and SCS-CIS(D). UHF-(DLPNO)-IP/EA/STEOM-CCSD. UHF-CVS-IP/STEOM-CCSD   
  Vijay G. Chilkuri      : MRCI spin determinant printing, contributions to CSF-ICE 
  Pauline Colinet        : FMM embedding                                 
  Dipayan Datta          : RHF DLPNO-CCSD density                        
  Achintya Kumar Dutta   : EOM-CC, STEOM-CC                              
  Nicolas Foglia         : Exact transition moments, OPA infrastructure, MCD improvements    
  Dmitry Ganyushin       : Spin-Orbit,Spin-Spin,Magnetic field MRCI      
  Miquel Garcia-Rates    : C-PCM and meta-GGA Hessian, CCSD/C-PCM, Gaussian charge scheme 
  Tiago L. C. Gouveia    : GS-ROHF, GS-ROCIS                             
  Yang Guo               : DLPNO-NEVPT2, F12-NEVPT2, CIM, IAO-localization        
  Andreas Hansen         : Spin unrestricted coupled pair/coupled cluster methods 
  Ingolf Harden          : AUTO-CI MPn and infrastructure                
  Benjamin Helmich-Paris : MC-RPA, TRAH-(SCF,CASSCF), AVAS, COSX integrals, SCF dyn. polar. 
  Lee Huntington         : MR-EOM, pCC                                   
  Robert Izsak           : Overlap fitted RIJCOSX, COSX-SCS-MP3, EOM     
  Riya Kayal             : Wick's Theorem for AUTO-CI, AUTO-CI UHF-CCSDT 
  Emily Kempfer          : AUTO-CI, RHF CISDT and CCSDT                  
  Christian Kollmar      : KDIIS, OOCD, Brueckner-CCSD(T), CCSD density, CASPT2, CASPT2-K, improved NEVPT2 
  Axel Koslowski         : Symmetry handling                             
  Simone Kossmann        : meta-GGA functionals, TD-DFT gradient, OOMP2, (MP2 Hessian; deprecated post 5.0) 
  Lucas Lang             : DCDCAS                                        
  Marvin Lechner         : AUTO-CI (C++ implementation), FIC-MRCC        
  Spencer Leger          : CASSCF response                               
  Dagmar Lenk            : GEPOL surface, SMD, ORCA-2-JSON               
  Dimitrios Liakos       : Extrapolation schemes; Compound Job, initial MDCI parallelization 
  Dimitrios Manganas     : Further ROCIS development; embedding schemes. LFT, Crystal Embedding 
  Dimitrios Pantazis     : SARC Basis sets                               
  Anastasios Papadopoulos: AUTO-CI, single reference methods and gradients 
  Taras Petrenko         : pre 6.0 DFT Hessian and TD-DFT gradient, (ASA, deprecated), ECA, 1-Electron XAS/XES, NRVS 
  Peter Pinski           : DLPNO-MP2, DLPNO-MP2 Gradient                 
  Christoph Reimann      : Effective Core Potentials                     
  Marius Retegan         : Local ZFS, SOC                                
  Christoph Riplinger    : Optimizer, TS searches, QM/MM, DLPNO-CCSD(T), (RO)-DLPNO pert. Triples 
  Michael Roemelt        : Original ROCIS implementation                 
  Masaaki Saitow         : Open-shell DLPNO-CCSD energy and density      
  Barbara Sandhoefer     : DKH picture change effects                    
  Kantharuban Sivalingam : CASSCF convergence/infrastructure, NEVPT2 and variants, FIC-MRCI 
  Bernardo de Souza      : ESD, SOC TD-DFT                               
  Georgi L. Stoychev     : AutoAux, RI-MP2 NMR, DLPNO-MP2 response, X2C  
  Van Anh Tran           : RI-MP2 g-tensors                              
  Willem Van den Heuvel  : Paramagnetic NMR                              
  Zikuan Wang            : NOTCH, Electric field optimization            
  Frank Wennmohs         : Technical directorship and infrastructure     
  Hang Xu                : AUTO-CI-Response properties                   
                                                                         
[FACCTs GmbH]                                                            
  Markus Bursch, Miquel Garcia-Rates, Christoph Riplinger, Bernardo de Souza, Georgi L. Stoychev 
                                                                 
  APM, Basis sets (HGBS, AHGBS, def-TZVP (Ac-Lr), def2-XVPD (La-Lu)), CI-OPT, improved COSX, DLPNO-Multilevel,           
  DOCKER, DRACO, updates on ESD, GOAT, IRC, LR-CPCM, MBIS, meta-GGA TD-DFT gradient, ML-optimized integration grids, 
  MM, NACMEs, nearIR, NEB, NEB-TS, NL-DFT gradient (VV10), 2- and 3-layer-ONIOM, interface openCOSMO-RS, QMMM,   
  Crystal-QMMM, SF, symmetry and pop. for TD-DFT, r2SCAN hybrids, SOLVATOR                                   
                                                                         
[Other institutions]                                                     
  V. Asgeirsson          : NEB                                           
  Christoph Bannwarth    : sTDA-DFT, sTD-DFT, PBEh-3c, B97-3c, D3        
  Sebastian Ehlert       : rSCAN, r2SCAN, r2SCAN-3c, D4, dhf basis sets  
  Marvin Friede          : D4 for Fr, Ra, Ac-Lr                          
  Lars Goerigk           : TD-DFT with DH, B97 family of functionals     
  Stefan Grimme          : VdW corrections, initial TS optimization, DFT functionals, gCP, sTDA/sTD-DF 
  Waldemar Hujo          : DFT-NL                                        
  H. Jonsson             : NEB                                           
  Holger Kruse           : gCP                                           
  Marcel Mueller         : wB97X-3c, vDZP basis set                      
  Hagen Neugebauer       : wr2SCAN                                       
  Tobias Risthaus        : range-separated hybrid DFT                    
  Lukas Wittmann         : regularized MP2, r2SCAN double-hybrids, wr2SCAN        
                                                                         
We gratefully acknowledge several colleagues who have allowed us to      
interface, adapt or use parts of their codes:                            
  Ed Valeev, F. Pavosevic, A. Kumar             : LibInt (2-el integral package), F12 methods 
  Garnet Chan, S. Sharma, J. Yang, R. Olivares  : DMRG                   
  Ulf Ekstrom                                   : XCFun DFT Library      
  Mihaly Kallay                                 : mrcc  (arbitrary order and MRCC methods)
  Frank Weinhold                                : gennbo (NPA and NBO analysis)           
  Simon Mueller                                 : openCOSMO-RS                            
  Christopher J. Cramer and Donald G. Truhlar   : smd solvation model                     
  S Lehtola, MJT Oliveira, MAL Marques          : LibXC Library                           
  Liviu Ungur et al                             : ANISO software                          


 Your calculation uses the libint2 library for the computation of 2-el integrals
 For citations please refer to: http://libint.valeyev.net

 Your ORCA version has been built with support for libXC version: 6.2.2
 For citations please refer to: https://libxc.gitlab.io

 This ORCA versions uses:
   CBLAS   interface :  Fast vector & matrix operations
   LAPACKE interface :  Fast linear algebra routines
   SCALAPACK package :  Parallel linear algebra routines
   Shared memory     :  Shared parallel matrices
   BLAS/LAPACK       :  OpenBLAS 0.3.27  USE64BITINT DYNAMIC_ARCH NO_AFFINITY Zen SINGLE_THREADED
        Core in use  :  Zen
   Copyright (c) 2011-2014, The OpenBLAS Project


NOTE: MaxCore=6000 MB was set to SCF,MP2,MDCI,CIPSI,MRCI and CIS
      => If you want to overwrite this, your respective input block should be placed after the MaxCore statement
Your calculation utilizes the atom-pairwise dispersion correction
with the Becke-Johnson damping scheme (D3BJ)


Your calculation employs the composite approach B97-3c by Grimme and coworkers.
For the correct reference, please check the publication list of the Grimme group:
http://www.thch.uni-bonn.de/tc/index.php?section=publikationen&subsection=grimme#2017
   

XCFun DFT library Copyright 2009-2010 Ulf Ekstrom and contributors.
See http://admol.org/xcfun for more information.
This is free software; see the source code for copying conditions.
There is ABSOLUTELY NO WARRANTY; not even for MERCHANTABILITY or FITNESS FOR A PARTICULAR PURPOSE.
For details see the documentation.
Scientific users of this library should cite U. Ekstrom, L. Visscher, R. Bast, A. J. Thorvaldsen and K. Ruud;
J.Chem.Theor.Comp. 2010, DOI: 10.1021/ct100117s
XCFun Version 0.99 

================================================================================

----- Orbital basis set information -----
Your calculation utilizes the basis: def2-mTZVP
----- AuxJ basis set information -----
Your calculation utilizes the basis: def2-mTZVP/J
================================================================================
                                        WARNINGS
                       Please study these warnings very carefully!
================================================================================


WARNING: Geometry Optimization
  ===> : Switching off AutoStart
         For restart on a previous wavefunction, please use MOREAD

================================================================================
                                       INPUT FILE
================================================================================
NAME = m1_00_Vitamin_B3-GFN1_0-B97-3C-TZ.inp
|  1> %pal nprocs 16 end
|  2> %MaxCore 6000
|  3> # put your comments here
|  4> ! B97-3C  OPT  FREQ DEFGRID3 NOTRAH
|  5> %scf MaxIter 800 end
|  6> %output
|  7> Print [P_Hirshfeld] 1
|  8> end
|  9> %geom
| 10> MaxIter 3000
| 11>  TolE 1e-6 #TolE 5e-6 Energy change (a.u.)
| 12>  TolRMSG 3e-5 #TolRMSG 1e-4 RMS gradient (a.u.)
| 13>  TolMaxG 1e-4 #TolMaxG 3e-3 Max. element of gradient (a.u.)
| 14>  TolRMSD 2e-3 #TolRMSD 2e-3 RMS displacement (a.u.)
| 15>  TolMaxD 4e-3 #TolMaxD 4e-3 Max. displacement (a.u.)
| 16> end
| 17> * xyz 0 1
| 18>  O -2.31663903052535 -1.17455343457052 0.11214314248256
| 19>  O -2.42642333474038 1.02818152030663 -0.21325664706975
| 20>  N 1.77336280761280 -1.18166165443890 0.16914427235058
| 21>  C -0.28125672678753 0.01379348827544 -0.03468262743579
| 22>  C 0.41090694924646 1.21333913987337 -0.20116656667638
| 23>  C 0.44773635169639 -1.16136110696779 0.14782211179294
| 24>  C 1.79386166120006 1.18306625999276 -0.17756440763747
| 25>  C 2.43137697507270 -0.03660921586928 0.01025280900509
| 26>  C -1.76424361671226 0.03470781948487 -0.05814261465443
| 27>  H -0.13920395362552 2.13708042922245 -0.34437037487151
| 28>  H -0.05793930325536 -2.11240136442527 0.28038835478694
| 29>  H 2.37269429585688 2.09018899029758 -0.30264432997593
| 30>  H 3.51538516213302 -0.09827544970016 0.03440815576984
| 31>  H -3.28287423717191 -1.08105142148119 0.08518672213331
| 32> *
| 33> 
| 34> 
| 35> 
| 36> 
| 37>                          ****END OF INPUT****
================================================================================

                       *****************************
                       * Geometry Optimization Run *
                       *****************************

Geometry optimization settings:
Update method            Update   .... BFGS
Choice of coordinates    CoordSys .... (2022) Redundant Internals
Initial Hessian          InHess   .... Almloef's Model
Max. no of cycles        MaxIter  .... 3000

Convergence Tolerances:
Energy Change            TolE     ....  1.0000e-06 Eh
Max. Gradient            TolMAXG  ....  1.0000e-04 Eh/bohr
RMS Gradient             TolRMSG  ....  3.0000e-05 Eh/bohr
Max. Displacement        TolMAXD  ....  4.0000e-03 bohr
RMS Displacement         TolRMSD  ....  2.0000e-03 bohr
Strict Convergence                .... False

------------------------------------------------------------------------------
                        ORCA OPTIMIZATION COORDINATE SETUP
------------------------------------------------------------------------------

The optimization will be done in redundant internal coordinates (2022)
Making redundant internal coordinates   ...  (2022 redundants) done
Evaluating the initial hessian          ...  (Almloef) done
Evaluating the coordinates              ...  done
Calculating the B-matrix                .... done
Calculating the G-matrix                .... done
Diagonalizing the G-matrix              .... done
The first mode is                       ....   24
The number of degrees of freedom        ....   36

    -----------------------------------------------------------------
                    Redundant Internal Coordinates


    -----------------------------------------------------------------
         Definition                    Initial Value    Approx d2E/dq
    -----------------------------------------------------------------
      1. B(C   4,C   3)                  1.3949         0.613674   
      2. B(C   5,N   2)                  1.3260         0.708040   
      3. B(C   5,C   3)                  1.3949         0.613665   
      4. B(C   6,C   4)                  1.3835         0.639925   
      5. B(C   7,C   6)                  1.3890         0.627106   
      6. B(C   7,N   2)                  1.3302         0.697136   
      7. B(C   8,O   0)                  1.3403         0.671647   
      8. B(C   8,C   3)                  1.4833         0.443458   
      9. B(C   8,O   1)                  1.2040         1.108363   
     10. B(H   9,C   4)                  1.0846         0.367271   
     11. B(H  10,C   5)                  1.0852         0.366444   
     12. B(H  11,C   6)                  1.0833         0.369058   
     13. B(H  12,C   7)                  1.0860         0.365391   
     14. B(H  13,O   0)                  0.9711         0.499138   
     15. A(C   8,O   0,H  13)          108.6429         0.372618   
     16. A(C   5,N   2,C   7)          118.6501         0.448173   
     17. A(C   4,C   3,C   5)          118.7360         0.432467   
     18. A(C   5,C   3,C   8)          122.4420         0.408118   
     19. A(C   4,C   3,C   8)          118.8220         0.408119   
     20. A(C   3,C   4,H   9)          119.7673         0.353475   
     21. A(C   3,C   4,C   6)          118.3704         0.435739   
     22. A(C   6,C   4,H   9)          121.8623         0.355994   
     23. A(C   3,C   5,H  10)          120.7140         0.353339   
     24. A(N   2,C   5,H  10)          116.7731         0.359791   
     25. A(N   2,C   5,C   3)          122.5129         0.440849   
     26. A(C   4,C   6,C   7)          118.7063         0.437443   
     27. A(C   7,C   6,H  11)          120.3751         0.355066   
     28. A(C   4,C   6,H  11)          120.9186         0.356287   
     29. A(N   2,C   7,C   6)          123.0244         0.441339   
     30. A(C   6,C   7,H  12)          120.7297         0.354465   
     31. A(N   2,C   7,H  12)          116.2459         0.358666   
     32. A(O   0,C   8,O   1)          122.2881         0.483179   
     33. A(O   1,C   8,C   3)          124.3015         0.450806   
     34. A(O   0,C   8,C   3)          113.4104         0.412026   
     35. D(H   9,C   4,C   3,C   5)    179.9964         0.026027   
     36. D(C   6,C   4,C   3,C   8)    179.9933         0.026027   
     37. D(H   9,C   4,C   3,C   8)     -0.0063         0.026027   
     38. D(C   6,C   4,C   3,C   5)     -0.0040         0.026027   
     39. D(N   2,C   5,C   3,C   8)   -179.9941         0.026027   
     40. D(N   2,C   5,C   3,C   4)      0.0031         0.026027   
     41. D(C   3,C   5,N   2,C   7)      0.0002         0.037625   
     42. D(H  10,C   5,N   2,C   7)   -179.9982         0.037625   
     43. D(H  10,C   5,C   3,C   4)   -179.9987         0.026027   
     44. D(H  10,C   5,C   3,C   8)      0.0042         0.026027   
     45. D(H  11,C   6,C   4,H   9)      0.0027         0.028451   
     46. D(C   7,C   6,C   4,H   9)   -179.9984         0.028451   
     47. D(C   7,C   6,C   4,C   3)      0.0020         0.028451   
     48. D(H  11,C   6,C   4,C   3)   -179.9969         0.028451   
     49. D(C   6,C   7,N   2,C   5)     -0.0024         0.036366   
     50. D(H  12,C   7,C   6,H  11)      0.0042         0.027251   
     51. D(H  12,C   7,C   6,C   4)   -179.9947         0.027251   
     52. D(N   2,C   7,C   6,H  11)   -179.9998         0.027251   
     53. D(N   2,C   7,C   6,C   4)      0.0013         0.027251   
     54. D(H  12,C   7,N   2,C   5)    179.9937         0.036366   
     55. D(O   1,C   8,C   3,C   5)   -179.9890         0.013413   
     56. D(O   1,C   8,C   3,C   4)      0.0139         0.013413   
     57. D(O   0,C   8,C   3,C   5)      0.0181         0.013413   
     58. D(O   0,C   8,C   3,C   4)   -179.9791         0.013413   
     59. D(C   3,C   8,O   0,H  13)    179.9952         0.033526   
     60. D(O   1,C   8,O   0,H  13)      0.0021         0.033526   
    -----------------------------------------------------------------

Number of atoms                         .... 14
Number of degrees of freedom            .... 60


         *************************************************************
         *                GEOMETRY OPTIMIZATION CYCLE   1            *
         *************************************************************
---------------------------------
CARTESIAN COORDINATES (ANGSTROEM)
---------------------------------
  O     -2.316639   -1.174553    0.112143
  O     -2.426423    1.028182   -0.213257
  N      1.773363   -1.181662    0.169144
  C     -0.281257    0.013793   -0.034683
  C      0.410907    1.213339   -0.201167
  C      0.447736   -1.161361    0.147822
  C      1.793862    1.183066   -0.177564
  C      2.431377   -0.036609    0.010253
  C     -1.764244    0.034708   -0.058143
  H     -0.139204    2.137080   -0.344370
  H     -0.057939   -2.112401    0.280388
  H      2.372694    2.090189   -0.302644
  H      3.515385   -0.098275    0.034408
  H     -3.282874   -1.081051    0.085187

----------------------------
CARTESIAN COORDINATES (A.U.)
----------------------------
  NO LB      ZA    FRAG     MASS         X           Y           Z
   0 O     8.0000    0    15.999   -4.377813   -2.219584    0.211920
   1 O     8.0000    0    15.999   -4.585276    1.942981   -0.402997
   2 N     7.0000    0    14.007    3.351170   -2.233017    0.319636
   3 C     6.0000    0    12.011   -0.531498    0.026066   -0.065541
   4 C     6.0000    0    12.011    0.776502    2.292879   -0.380150
   5 C     6.0000    0    12.011    0.846099   -2.194654    0.279343
   6 C     6.0000    0    12.011    3.389907    2.235671   -0.335548
   7 C     6.0000    0    12.011    4.594637   -0.069181    0.019375
   8 C     6.0000    0    12.011   -3.333937    0.065588   -0.109874
   9 H     1.0000    0     1.008   -0.263057    4.038497   -0.650766
  10 H     1.0000    0     1.008   -0.109489   -3.991860    0.529857
  11 H     1.0000    0     1.008    4.483742    3.949885   -0.571915
  12 H     1.0000    0     1.008    6.643115   -0.185714    0.065022
  13 H     1.0000    0     1.008   -6.203733   -2.042891    0.160980

--------------------------------
INTERNAL COORDINATES (ANGSTROEM)
--------------------------------
 O      0   0   0     0.000000000000     0.00000000     0.00000000
 O      1   0   0     2.229344948170     0.00000000     0.00000000
 N      1   2   0     4.090405198947    93.03760086     0.00000000
 C      1   2   3     2.361462965646    62.36427910     0.00000000
 C      4   1   2     1.394889682632   150.21175799     0.03336778
 C      3   1   2     1.325953335297     0.78734593   359.37467935
 C      5   4   1     1.383487348870   118.37038752   179.97131211
 C      3   1   2     1.330178269547   119.43737058     0.02341942
 C      2   1   3     1.203965255414    30.54744381     0.00000000
 H      5   4   1     1.084632336688   119.76732632   359.97170318
 H      6   3   8     1.085246169354   116.77312313   180.00183361
 H      7   5   4     1.083311522025   120.91858614   180.00313250
 H      8   3   1     1.086029444714   116.24591863   179.98357659
 H      1   2   3     0.971122932287    81.47841621   179.99931267

---------------------------
INTERNAL COORDINATES (A.U.)
---------------------------
 O      0   0   0     0.000000000000     0.00000000     0.00000000
 O      1   0   0     4.212851410082     0.00000000     0.00000000
 N      1   2   0     7.729745602777    93.03760086     0.00000000
 C      1   2   3     4.462518280469    62.36427910     0.00000000
 C      4   1   2     2.635959487207   150.21175799     0.03336778
 C      3   1   2     2.505688670070     0.78734593   359.37467935
 C      5   4   1     2.614412199108   118.37038752   179.97131211
 C      3   1   2     2.513672638738   119.43737058     0.02341942
 C      2   1   3     2.275164607489    30.54744381     0.00000000
 H      5   4   1     2.049658072335   119.76732632   359.97170318
 H      6   3   8     2.050818047966   116.77312313   180.00183361
 H      7   5   4     2.047162094348   120.91858614   180.00313250
 H      8   3   1     2.052298223884   116.24591863   179.98357659
 H      1   2   3     1.835156384392    81.47841621   179.99931267

---------------------
BASIS SET INFORMATION
---------------------
There are 4 groups of distinct atoms

 Group   1 Type O   : 11s6p2d contracted to 5s3p2d pattern {62111/411/11}
 Group   2 Type N   : 11s6p1d contracted to 5s3p1d pattern {62111/411/1}
 Group   3 Type C   : 11s6p1d contracted to 5s3p1d pattern {62111/411/1}
 Group   4 Type H   : 5s contracted to 3s pattern {311}

Atom   0O    basis set group =>   1
Atom   1O    basis set group =>   1
Atom   2N    basis set group =>   2
Atom   3C    basis set group =>   3
Atom   4C    basis set group =>   3
Atom   5C    basis set group =>   3
Atom   6C    basis set group =>   3
Atom   7C    basis set group =>   3
Atom   8C    basis set group =>   3
Atom   9H    basis set group =>   4
Atom  10H    basis set group =>   4
Atom  11H    basis set group =>   4
Atom  12H    basis set group =>   4
Atom  13H    basis set group =>   4
---------------------------------
AUXILIARY/J BASIS SET INFORMATION
---------------------------------
There are 4 groups of distinct atoms

 Group   1 Type O   : 8s3p3d contracted to 6s3p3d pattern {311111/111/111}
 Group   2 Type N   : 8s3p3d contracted to 6s3p3d pattern {311111/111/111}
 Group   3 Type C   : 8s3p3d contracted to 6s3p3d pattern {311111/111/111}
 Group   4 Type H   : 5s2p contracted to 3s1p pattern {311/2}

Atom   0O    basis set group =>   1
Atom   1O    basis set group =>   1
Atom   2N    basis set group =>   2
Atom   3C    basis set group =>   3
Atom   4C    basis set group =>   3
Atom   5C    basis set group =>   3
Atom   6C    basis set group =>   3
Atom   7C    basis set group =>   3
Atom   8C    basis set group =>   3
Atom   9H    basis set group =>   4
Atom  10H    basis set group =>   4
Atom  11H    basis set group =>   4
Atom  12H    basis set group =>   4
Atom  13H    basis set group =>   4


           ************************************************************
           *        Program running with 16 parallel MPI-processes    *
           *              working on a common directory               *
           ************************************************************
------------------------------------------------------------------------------
                             ORCA STARTUP CALCULATIONS
                           -- RI-GTO INTEGRALS CHOSEN --
------------------------------------------------------------------------------
------------------------------------------------------------------------------
                   ___                                                        
                  /   \      - P O W E R E D   B Y -                         
                 /     \                                                     
                 |  |  |   _    _      __       _____    __    __             
                 |  |  |  | |  | |    /  \     |  _  \  |  |  /  |          
                  \  \/   | |  | |   /    \    | | | |  |  | /  /          
                 / \  \   | |__| |  /  /\  \   | |_| |  |  |/  /          
                |  |  |   |  __  | /  /__\  \  |    /   |      \           
                |  |  |   | |  | | |   __   |  |    \   |  |\   \          
                \     /   | |  | | |  |  |  |  | |\  \  |  | \   \       
                 \___/    |_|  |_| |__|  |__|  |_| \__\ |__|  \__/        
                                                                              
                      - O R C A' S   B I G   F R I E N D -                    
                                      &                                       
                       - I N T E G R A L  F E E D E R -                       
                                                                              
 v1 FN, 2020, v2 2021, v3 2022-2024                                           
------------------------------------------------------------------------------


----------------------
SHARK INTEGRAL PACKAGE
----------------------

Number of atoms                             ...     14
Number of basis functions                   ...    196
Number of shells                            ...     98
Maximum angular momentum                    ...      2
Integral batch strategy                     ... SHARK/LIBINT Hybrid
RI-J (if used) integral strategy            ... SPLIT-RIJ (Revised 2003 algorithm where possible)
Printlevel                                  ...      1
Contraction scheme used                     ... SEGMENTED contraction
Prescreening option                         ... SCHWARTZ
   Thresh                                   ... 2.500e-11
   Tcut                                     ... 2.500e-12
   Tpresel                                  ... 2.500e-12 
Coulomb Range Separation                    ... NOT USED
Exchange Range Separation                   ... NOT USED
Multipole approximations                    ... NOT USED
Finite Nucleus Model                        ... NOT USED
CABS basis                                  ... NOT available
Auxiliary Coulomb fitting basis             ... AVAILABLE
   # of basis functions in Aux-J            ...    300
   # of shells in Aux-J                     ...    128
   Maximum angular momentum in Aux-J        ...      2
Auxiliary J/K fitting basis                 ... NOT available
Auxiliary Correlation fitting basis         ... NOT available
Auxiliary 'external' fitting basis          ... NOT available

Checking pre-screening integrals            ... done (  0.0 sec) Dimension = 98
Check shell pair data                       ... done (  0.0 sec)
Shell pair information
Shell pair cut-off parameter TPreSel        ...   2.5e-12
Total number of shell pairs                 ...      4851
Shell pairs after pre-screening             ...      4401
Total number of primitive shell pairs       ...     18168
Primitive shell pairs kept                  ...     11705
          la=0 lb=0:   1555 shell pairs
          la=1 lb=0:   1527 shell pairs
          la=1 lb=1:    372 shell pairs
          la=2 lb=0:    597 shell pairs
          la=2 lb=1:    288 shell pairs
          la=2 lb=2:     62 shell pairs

Calculating one electron integrals          ... done (  0.0 sec)
Calculating RI/J V-Matrix + Cholesky decomp.... done (  0.0 sec)
Calculating Nuclear repulsion               ... done (  0.0 sec) ENN=    409.847006623340 Eh

Diagonalization of the overlap matrix:
Smallest eigenvalue                        ... 4.871e-05
Time for diagonalization                   ...    0.011 sec
Threshold for overlap eigenvalues          ... 1.000e-07
Number of eigenvalues below threshold      ... 0
Time for construction of square roots      ...    0.002 sec
Total time needed                          ...    0.013 sec

-------------------
DFT GRID GENERATION
-------------------

General Integration Accuracy     IntAcc      ... 4.959
Radial Grid Type                 RadialGrid  ... OptM3 with GC (2021)
Angular Grid (max. ang.)         AngularGrid ... 6 (Lebedev-590)
Angular grid pruning method      GridPruning ... 4 (adaptive)
Weight generation scheme         WeightScheme... mBecke (2022)
Basis function cutoff            BFCut       ... 1.0000e-11
Integration weight cutoff        WCut        ... 1.0000e-14
Partially contracted basis set               ... off
Rotationally invariant grid construction     ... off
Angular grids for H and He will be reduced by one unit
Diffuse basis detected: some atoms will have their outermost
                        angular grid increased by 1.

Total number of grid points                  ...   173868
Total number of batches                      ...     2721
Average number of points per batch           ...       63
Average number of grid points per atom       ...    12419
Initializing property integral containers    ... done (  0.0 sec)

SHARK setup successfully completed in   1.4 seconds

Maximum memory used throughout the entire STARTUP-calculation: 36.5 MB


           ************************************************************
           *        Program running with 16 parallel MPI-processes    *
           *              working on a common directory               *
           ************************************************************
-------------------------------------------------------------------------------
                                 ORCA GUESS
                   Start orbitals & Density for SCF / CASSCF
-------------------------------------------------------------------------------

------------
SCF SETTINGS
------------
Hamiltonian:
 Density Functional     Method          .... DFT(GTOs)
 Exchange Functional    Exchange        .... B973C
 Correlation Functional Correlation     .... B973C
 Gradients option       PostSCFGGA      .... off
 RI-approximation to the Coulomb term is turned on
   Number of AuxJ basis functions       .... 300


General Settings:
 Integral files         IntName         .... m1_00_Vitamin_B3-GFN1_0-B97-3C-TZ
 Hartree-Fock type      HFTyp           .... RHF
 Total Charge           Charge          ....    0
 Multiplicity           Mult            ....    1
 Number of Electrons    NEL             ....   64
 Basis Dimension        Dim             ....  196
 Nuclear Repulsion      ENuc            ....    409.8470066233 Eh

Convergence Acceleration:
 AO-DIIS                CNVDIIS         .... on
   Start iteration      DIISMaxIt       ....    12
   Startup error        DIISStart       ....  0.200000
   # of expansion vecs  DIISMaxEq       ....     5
   Bias factor          DIISBfac        ....   1.050
   Max. coefficient     DIISMaxC        ....  10.000
 MO-DIIS                CNVKDIIS        .... off
 Trust-Rad. Augm. Hess. CNVTRAH         .... off
 SOSCF                  CNVSOSCF        .... on
   Start iteration      SOSCFMaxIt      ....   150
   Startup grad/error   SOSCFStart      ....  0.003300
   Hessian update       SOSCFHessUp     .... L-BFGS
 Level Shifting         CNVShift        .... on
   Level shift para.    LevelShift      ....    0.2500
   Turn off err/grad.   ShiftErr        ....    0.0010
 Zerner damping         CNVZerner       .... off
 Static damping         CNVDamp         .... on
   Fraction old density DampFac         ....    0.7000
   Max. Damping (<1)    DampMax         ....    0.9800
   Min. Damping (>=0)   DampMin         ....    0.0000
   Turn off err/grad.   DampErr         ....    0.1000

SCF Procedure:
 Maximum # iterations   MaxIter         ....   800
 SCF integral mode      SCFMode         .... Direct
   Integral package                     .... SHARK and LIBINT hybrid scheme
 Reset frequency        DirectResetFreq ....    20
 Integral Threshold     Thresh          ....  2.500e-11 Eh
 Primitive CutOff       TCut            ....  2.500e-12 Eh

Convergence Tolerance:
 Convergence Check Mode ConvCheckMode   .... Total+1el-Energy
 Convergence forced     ConvForced      .... 0
 Energy Change          TolE            ....  1.000e-08 Eh
 1-El. energy change                    ....  1.000e-05 Eh
 Orbital Gradient       TolG            ....  1.000e-05
 Orbital Rotation angle TolX            ....  1.000e-05
 DIIS Error             TolErr          ....  5.000e-07

--------------------------------
INITIAL GUESS: MINIMAL BASIS EHT
--------------------------------
The minimal basis has 50 functions
EHT matrix was diagonalized
Basis set overlap was calculated now projecting the orbitals
Using GuessMode=FMatrix for the initial guess
C*T matrix was formed
Effective Fockian was calculated
Effective Fockian was diagonalized
Initial density was built
                      ------------------
                      INITIAL GUESS DONE
                      ------------------
             **** ENERGY FILE WAS UPDATED (m1_00_Vitamin_B3-GFN1_0-B97-3C-TZ.en.tmp) ****
Finished Guess after   0.1 sec
Maximum memory used throughout the entire GUESS-calculation: 9.6 MB


           ************************************************************
           *        Program running with 16 parallel MPI-processes    *
           *              working on a common directory               *
           ************************************************************

-------------------------------------------------------------------------------------------
                                      ORCA LEAN-SCF
                              memory conserving SCF solver
-------------------------------------------------------------------------------------------

----------------------------------------D-I-I-S--------------------------------------------
Iteration    Energy (Eh)           Delta-E    RMSDP     MaxDP     DIISErr   Damp  Time(sec)
-------------------------------------------------------------------------------------------
               ***  Starting incremental Fock matrix formation  ***
    1    -434.9620345926092000     0.00e+00  7.59e-03  1.54e-01  4.69e-01  0.700   0.2
Warning: op=0 Small HOMO/LUMO gap (   0.056) - skipping pre-diagonalization
         Will do a full diagonalization
    2    -435.5701153440028861    -6.08e-01  5.88e-03  1.49e-01  3.31e-01  0.700   0.2
    3    -435.8726119421566523    -3.02e-01  3.00e-03  6.29e-02  2.31e-01  0.700   0.1
                               ***Turning on AO-DIIS***
    4    -436.0822629042733638    -2.10e-01  2.27e-03  6.61e-02  1.61e-01  0.700   0.1
    5    -436.2305796525520805    -1.48e-01  1.64e-03  5.22e-02  1.12e-01  0.700   0.1
    6    -436.3351009851793947    -1.05e-01  1.08e-03  3.00e-02  7.88e-02  0.700   0.1
    7    -436.4091772934156666    -7.41e-02  2.48e-03  5.58e-02  5.53e-02  0.000   0.1
    8    -436.5804062285114355    -1.71e-01  5.35e-04  1.35e-02  2.59e-02  0.000   0.1
    9    -436.5819667018787982    -1.56e-03  1.79e-04  3.88e-03  8.71e-03  0.000   0.1
   10    -436.5820112936119699    -4.46e-05  6.94e-05  1.79e-03  6.94e-03  0.000   0.1
                              *** Initializing SOSCF ***
---------------------------------------S-O-S-C-F--------------------------------------
Iteration    Energy (Eh)           Delta-E    RMSDP     MaxDP     MaxGrad    Time(sec)
--------------------------------------------------------------------------------------
   11    -436.5821081734140421    -9.69e-05  2.80e-05  5.74e-04  1.16e-03     0.1
               *** Restarting incremental Fock matrix formation ***
   12    -436.5821141822063396    -6.01e-06  3.42e-05  1.10e-03  1.47e-04     0.1
   13    -436.5821118872941611     2.29e-06  2.11e-05  4.59e-04  3.52e-04     0.1
   14    -436.5821146280116523    -2.74e-06  1.01e-05  3.60e-04  4.37e-05     0.1
   15    -436.5821144355313095     1.92e-07  7.03e-06  2.53e-04  1.10e-04     0.1
   16    -436.5821146704652733    -2.35e-07  2.79e-06  9.48e-05  1.16e-05     0.1
   17    -436.5821146582129018     1.23e-08  1.75e-06  3.45e-05  3.06e-05     0.1
   18    -436.5821146727676592    -1.46e-08  2.46e-06  1.16e-04  1.20e-06     0.1
                  *** Gradient check signals convergence ***

               *****************************************************
               *                     SUCCESS                       *
               *           SCF CONVERGED AFTER  18 CYCLES          *
               *****************************************************

             **** ENERGY FILE WAS UPDATED (m1_00_Vitamin_B3-GFN1_0-B97-3C-TZ.en.tmp) ****

----------------
TOTAL SCF ENERGY
----------------

Total Energy       :       -436.58211467276766 Eh          -11880.00331 eV

Components:
Nuclear Repulsion  :        409.84700662334041 Eh           11152.50403 eV
Electronic Energy  :       -846.42912129610806 Eh          -23032.50734 eV
One Electron Energy:      -1405.90213901917855 Eh          -38256.54213 eV
Two Electron Energy:        559.47301772307048 Eh           15224.03479 eV

Virial components:
Potential Energy   :       -871.63389255428797 Eh          -23718.36403 eV
Kinetic Energy     :        435.05177788152025 Eh           11838.36073 eV
Virial Ratio       :          2.00351759691386

DFT components:
N(Alpha)           :       32.000001839942 electrons
N(Beta)            :       32.000001839942 electrons
N(Total)           :       64.000003679884 electrons
E(XC)              :      -58.174465319507 Eh       

---------------
SCF CONVERGENCE
---------------

  Last Energy change         ...    1.4555e-08  Tolerance :   1.0000e-08
  Last MAX-Density change    ...    1.1599e-04  Tolerance :   1.0000e-07
  Last RMS-Density change    ...    2.4560e-06  Tolerance :   5.0000e-09
  Last DIIS Error            ...    1.1568e-03  Tolerance :   5.0000e-07
  Last Orbital Gradient      ...    1.1974e-06  Tolerance :   1.0000e-05
  Last Orbital Rotation      ...    6.4496e-06  Tolerance :   1.0000e-05


----------------
ORBITAL ENERGIES
----------------

  NO   OCC          E(Eh)            E(eV) 
   0   2.0000     -18.804626      -511.6999 
   1   2.0000     -18.740146      -509.9453 
   2   2.0000     -13.996063      -380.8522 
   3   2.0000     -10.029656      -272.9208 
   4   2.0000      -9.943424      -270.5743 
   5   2.0000      -9.943274      -270.5702 
   6   2.0000      -9.929001      -270.1819 
   7   2.0000      -9.928498      -270.1682 
   8   2.0000      -9.918593      -269.8986 
   9   2.0000      -1.040501       -28.3135 
  10   2.0000      -0.950519       -25.8649 
  11   2.0000      -0.887294       -24.1445 
  12   2.0000      -0.760885       -20.7047 
  13   2.0000      -0.724264       -19.7082 
  14   2.0000      -0.632488       -17.2109 
  15   2.0000      -0.592885       -16.1332 
  16   2.0000      -0.562581       -15.3086 
  17   2.0000      -0.501138       -13.6367 
  18   2.0000      -0.470095       -12.7919 
  19   2.0000      -0.447557       -12.1787 
  20   2.0000      -0.433476       -11.7955 
  21   2.0000      -0.420436       -11.4406 
  22   2.0000      -0.411901       -11.2084 
  23   2.0000      -0.375828       -10.2268 
  24   2.0000      -0.371976       -10.1220 
  25   2.0000      -0.362157        -9.8548 
  26   2.0000      -0.346696        -9.4341 
  27   2.0000      -0.296235        -8.0610 
  28   2.0000      -0.275085        -7.4855 
  29   2.0000      -0.256863        -6.9896 
  30   2.0000      -0.250864        -6.8264 
  31   2.0000      -0.223853        -6.0913 
  32   0.0000      -0.094493        -2.5713 
  33   0.0000      -0.067461        -1.8357 
  34   0.0000       0.001695         0.0461 
  35   0.0000       0.010787         0.2935 
  36   0.0000       0.041760         1.1363 
  37   0.0000       0.074327         2.0225 
  38   0.0000       0.080311         2.1854 
  39   0.0000       0.095252         2.5920 
  40   0.0000       0.099924         2.7191 
  41   0.0000       0.105421         2.8686 
  42   0.0000       0.124459         3.3867 
*Only the first 10 virtual orbitals were printed.

                    ********************************
                    * MULLIKEN POPULATION ANALYSIS *
                    ********************************

-----------------------
MULLIKEN ATOMIC CHARGES
-----------------------
   0 O :   -0.515742
   1 O :   -0.387246
   2 N :   -0.054011
   3 C :    0.167705
   4 C :   -0.213974
   5 C :   -0.151641
   6 C :   -0.059201
   7 C :   -0.162614
   8 C :    0.213214
   9 H :    0.206535
  10 H :    0.182255
  11 H :    0.179696
  12 H :    0.154092
  13 H :    0.440932
Sum of atomic charges:    0.0000000

--------------------------------
MULLIKEN REDUCED ORBITAL CHARGES
--------------------------------
  0 O s       :     3.773839  s :     3.773839
      pz      :     1.783900  p :     4.697166
      px      :     1.385827
      py      :     1.527439
      dz2     :     0.005406  d :     0.044737
      dxz     :     0.005159
      dyz     :     0.004680
      dx2y2   :     0.022469
      dxy     :     0.007023

  1 O s       :     3.838455  s :     3.838455
      pz      :     1.426179  p :     4.516232
      px      :     1.631170
      py      :     1.458883
      dz2     :     0.006027  d :     0.032560
      dxz     :     0.005667
      dyz     :     0.003292
      dx2y2   :     0.007123
      dxy     :     0.010451

  2 N s       :     3.460296  s :     3.460296
      pz      :     1.121782  p :     3.547877
      px      :     1.080755
      py      :     1.345339
      dz2     :     0.005039  d :     0.045838
      dxz     :     0.006849
      dyz     :     0.006485
      dx2y2   :     0.016273
      dxy     :     0.011193

  3 C s       :     3.089834  s :     3.089834
      pz      :     1.026237  p :     2.697255
      px      :     0.892344
      py      :     0.778673
      dz2     :     0.003896  d :     0.045207
      dxz     :     0.003952
      dyz     :     0.005931
      dx2y2   :     0.017473
      dxy     :     0.013954

  4 C s       :     3.240717  s :     3.240717
      pz      :     0.907379  p :     2.931752
      px      :     1.004061
      py      :     1.020312
      dz2     :     0.003744  d :     0.041505
      dxz     :     0.005859
      dyz     :     0.003537
      dx2y2   :     0.012574
      dxy     :     0.015791

  5 C s       :     3.244191  s :     3.244191
      pz      :     0.903435  p :     2.849434
      px      :     0.961639
      py      :     0.984360
      dz2     :     0.004129  d :     0.058016
      dxz     :     0.008692
      dyz     :     0.003440
      dx2y2   :     0.016885
      dxy     :     0.024870

  6 C s       :     3.053019  s :     3.053019
      pz      :     0.997318  p :     2.965873
      px      :     0.979257
      py      :     0.989297
      dz2     :     0.003905  d :     0.040309
      dxz     :     0.004752
      dyz     :     0.003216
      dx2y2   :     0.012870
      dxy     :     0.015566

  7 C s       :     3.242777  s :     3.242777
      pz      :     0.913780  p :     2.861878
      px      :     1.030945
      py      :     0.917153
      dz2     :     0.004434  d :     0.057959
      dxz     :     0.002948
      dyz     :     0.008843
      dx2y2   :     0.024933
      dxy     :     0.016802

  8 C s       :     3.123995  s :     3.123995
      pz      :     0.804343  p :     2.540648
      px      :     0.931188
      py      :     0.805117
      dz2     :     0.006206  d :     0.122143
      dxz     :     0.010799
      dyz     :     0.024618
      dx2y2   :     0.047636
      dxy     :     0.032884

  9 H s       :     0.793465  s :     0.793465

 10 H s       :     0.817745  s :     0.817745

 11 H s       :     0.820304  s :     0.820304

 12 H s       :     0.845908  s :     0.845908

 13 H s       :     0.559068  s :     0.559068



                     *******************************
                     * LOEWDIN POPULATION ANALYSIS *
                     *******************************

----------------------
LOEWDIN ATOMIC CHARGES
----------------------
   0 O :   -0.515984
   1 O :   -0.415669
   2 N :   -0.173821
   3 C :   -0.025539
   4 C :   -0.079319
   5 C :   -0.024400
   6 C :   -0.170914
   7 C :   -0.052267
   8 C :    0.362431
   9 H :    0.196370
  10 H :    0.183312
  11 H :    0.173307
  12 H :    0.161047
  13 H :    0.381446

-------------------------------
LOEWDIN REDUCED ORBITAL CHARGES
-------------------------------
  0 O s       :     3.513768  s :     3.513768
      pz      :     1.751715  p :     4.721029
      px      :     1.392730
      py      :     1.576584
      dz2     :     0.041913  d :     0.281187
      dxz     :     0.020328
      dyz     :     0.049500
      dx2y2   :     0.094239
      dxy     :     0.075207

  1 O s       :     3.530838  s :     3.530838
      pz      :     1.415480  p :     4.630705
      px      :     1.659608
      py      :     1.555617
      dz2     :     0.033987  d :     0.254126
      dxz     :     0.023780
      dyz     :     0.043628
      dx2y2   :     0.074352
      dxy     :     0.078379

  2 N s       :     3.226260  s :     3.226260
      pz      :     1.117554  p :     3.861778
      px      :     1.279249
      py      :     1.464975
      dz2     :     0.009404  d :     0.085784
      dxz     :     0.012448
      dyz     :     0.008705
      dx2y2   :     0.031659
      dxy     :     0.023567

  3 C s       :     2.844258  s :     2.844258
      pz      :     0.988739  p :     3.087464
      px      :     1.004234
      py      :     1.094492
      dz2     :     0.007823  d :     0.093817
      dxz     :     0.006615
      dyz     :     0.010981
      dx2y2   :     0.036345
      dxy     :     0.032053

  4 C s       :     2.902719  s :     2.902719
      pz      :     0.908771  p :     3.095751
      px      :     1.094403
      py      :     1.092576
      dz2     :     0.006069  d :     0.080850
      dxz     :     0.010501
      dyz     :     0.005955
      dx2y2   :     0.027388
      dxy     :     0.030937

  5 C s       :     2.885253  s :     2.885253
      pz      :     0.904841  p :     3.021228
      px      :     1.029948
      py      :     1.086439
      dz2     :     0.008161  d :     0.117919
      dxz     :     0.015310
      dyz     :     0.005752
      dx2y2   :     0.037151
      dxy     :     0.051545

  6 C s       :     2.910194  s :     2.910194
      pz      :     0.986342  p :     3.180450
      px      :     1.101601
      py      :     1.092507
      dz2     :     0.006496  d :     0.080271
      dxz     :     0.008640
      dyz     :     0.005408
      dx2y2   :     0.028262
      dxy     :     0.031466

  7 C s       :     2.894928  s :     2.894928
      pz      :     0.911229  p :     3.039755
      px      :     1.077915
      py      :     1.050611
      dz2     :     0.008353  d :     0.117585
      dxz     :     0.004273
      dyz     :     0.016620
      dx2y2   :     0.052240
      dxy     :     0.036099

  8 C s       :     2.737939  s :     2.737939
      pz      :     0.741029  p :     2.628994
      px      :     0.964640
      py      :     0.923325
      dz2     :     0.018596  d :     0.270636
      dxz     :     0.018008
      dyz     :     0.048037
      dx2y2   :     0.107805
      dxy     :     0.078189

  9 H s       :     0.803630  s :     0.803630

 10 H s       :     0.816688  s :     0.816688

 11 H s       :     0.826693  s :     0.826693

 12 H s       :     0.838953  s :     0.838953

 13 H s       :     0.618554  s :     0.618554



                      *****************************
                      * MAYER POPULATION ANALYSIS *
                      *****************************

  NA   - Mulliken gross atomic population
  ZA   - Total nuclear charge
  QA   - Mulliken gross atomic charge
  VA   - Mayer's total valence
  BVA  - Mayer's bonded valence
  FA   - Mayer's free valence

  ATOM       NA         ZA         QA         VA         BVA        FA
  0 O      8.5157     8.0000    -0.5157     1.9634     1.9634    -0.0000
  1 O      8.3872     8.0000    -0.3872     2.1284     2.1284     0.0000
  2 N      7.0540     7.0000    -0.0540     3.1231     3.1231    -0.0000
  3 C      5.8323     6.0000     0.1677     3.5419     3.5419     0.0000
  4 C      6.2140     6.0000    -0.2140     3.9128     3.9128     0.0000
  5 C      6.1516     6.0000    -0.1516     3.8735     3.8735     0.0000
  6 C      6.0592     6.0000    -0.0592     3.7049     3.7049    -0.0000
  7 C      6.1626     6.0000    -0.1626     4.0100     4.0100     0.0000
  8 C      5.7868     6.0000     0.2132     4.2334     4.2334     0.0000
  9 H      0.7935     1.0000     0.2065     0.9398     0.9398    -0.0000
 10 H      0.8177     1.0000     0.1823     0.9674     0.9674    -0.0000
 11 H      0.8203     1.0000     0.1797     0.9313     0.9313    -0.0000
 12 H      0.8459     1.0000     0.1541     0.9545     0.9545    -0.0000
 13 H      0.5591     1.0000     0.4409     0.7924     0.7924    -0.0000

  Mayer bond orders larger than 0.100000
B(  0-O ,  3-C ) :  -0.1196 B(  0-O ,  8-C ) :   1.1776 B(  0-O , 13-H ) :   0.7286 
B(  1-O ,  8-C ) :   1.9691 B(  2-N ,  5-C ) :   1.5513 B(  2-N ,  7-C ) :   1.5328 
B(  3-C ,  4-C ) :   1.4077 B(  3-C ,  5-C ) :   1.2927 B(  3-C ,  8-C ) :   0.9919 
B(  4-C ,  6-C ) :   1.4274 B(  4-C ,  9-H ) :   0.9270 B(  5-C , 10-H ) :   0.9431 
B(  6-C ,  7-C ) :   1.3655 B(  6-C , 11-H ) :   0.9069 B(  7-C , 12-H ) :   0.9572 



------------------
HIRSHFELD ANALYSIS
------------------

Total integrated alpha density =     32.000001840
Total integrated beta density  =     32.000001840

  ATOM     CHARGE      SPIN    
   0 O   -0.167699    0.000000
   1 O   -0.283856    0.000000
   2 N   -0.183754    0.000000
   3 C   -0.013590    0.000000
   4 C   -0.002936    0.000000
   5 C    0.044114    0.000000
   6 C   -0.032588    0.000000
   7 C    0.045001    0.000000
   8 C    0.205191    0.000000
   9 H    0.055286    0.000000
  10 H    0.048107    0.000000
  11 H    0.049988    0.000000
  12 H    0.049263    0.000000
  13 H    0.187470    0.000000

  TOTAL  -0.000004    0.000000

-------
TIMINGS
-------

Total SCF time: 0 days 0 hours 0 min 2 sec 

Total time                  ....       2.851 sec
Sum of individual times     ....       2.806 sec  ( 98.4%)

SCF preparation             ....       0.103 sec  (  3.6%)
Fock matrix formation       ....       2.288 sec  ( 80.2%)
  Startup                   ....       0.008 sec  (  0.4% of F)
  Split-RI-J                ....       0.311 sec  ( 13.6% of F)
  XC integration            ....       1.826 sec  ( 79.8% of F)
    XC Preparation          ....       0.000 sec  (  0.0% of XC)
    Basis function eval.    ....       0.485 sec  ( 26.6% of XC)
    Density eval.           ....       0.317 sec  ( 17.3% of XC)
    XC-Functional eval.     ....       0.080 sec  (  4.4% of XC)
    XC-Potential eval.      ....       0.346 sec  ( 18.9% of XC)
Diagonalization             ....       0.000 sec  (  0.0%)
Density matrix formation    ....       0.023 sec  (  0.8%)
Total Energy calculation    ....       0.016 sec  (  0.6%)
Population analysis         ....       0.170 sec  (  6.0%)
Orbital Transformation      ....       0.018 sec  (  0.6%)
Orbital Orthonormalization  ....       0.000 sec  (  0.0%)
DIIS solution               ....       0.140 sec  (  4.9%)
SOSCF solution              ....       0.050 sec  (  1.8%)
Finished LeanSCF after   2.9 sec

Maximum memory used throughout the entire LEANSCF-calculation: 25.2 MB


           ************************************************************
           *        Program running with 16 parallel MPI-processes    *
           *              working on a common directory               *
           ************************************************************

------------------------------------------------------------------------------
                         ORCA PROPERTY INTEGRAL CALCULATIONS
------------------------------------------------------------------------------

GBWName                                   ... m1_00_Vitamin_B3-GFN1_0-B97-3C-TZ.gbw
Number of atoms                           ...     14
Number of basis functions                 ...    196
Max core memory                           ...   6000 MB

Dipole integrals                          ... YES
Quadrupole integrals                      ...  NO
Linear momentum integrals                 ...  NO
Angular momentum integrals                ...  NO
Higher moments length integrals           ...  NO
Higher moments velocity integrals         ...  NO
Kinetic energy integrals                  ...  NO
GIAO right hand sides                     ...  NO
GIAO dipole derivative integrals          ...  NO
SOC integrals                             ...  NO
EPR diamagnetic integrals (GIAO)          ...  NO
EPR gauge integrals                       ...  NO
Field gradient integrals                  ...  NO (   0 nuclei)
Spin-dipole/Fermi contact integrals       ...  NO (   0 nuclei)
Contact density integrals                 ...  NO (   0 nuclei)
Nucleus-orbit integrals                   ...  NO (   0 nuclei)
Geometric perturbations                   ...  NO (  14 nuclei)

Choice of electric origin   ... Center of mass
Position of electric origin ... ( -0.1861, -0.0456, -0.0501) 
Choice of magnetic origin   ... GIAO
Position of magnetic origin ... (  0.0000,  0.0000,  0.0000) 

Calculating integrals                     ... Electric Dipole (Length)     done (  0.0 sec)

Property integrals calculated in   0.0 sec

Maximum memory used throughout the entire PROPINT-calculation: 10.1 MB


-------------------------------------------------------------------------------
                          DFT DISPERSION CORRECTION                            
                                                                               
                              DFTD3 V3.1  Rev 1                                
                          USING Becke-Johnson damping                          
-------------------------------------------------------------------------------
The B97-3c composite method is recognized
Using three-body term ABC
Active option DFTDOPT                   ...         4   

molecular C6(AA) [au] = 2490.086132 


            DFT-D V3
 parameters
 s6 scaling factor         :     1.0000 
 a1 scaling factor         :     0.3700 
 s8 scaling factor         :     1.5000 
 a2 scaling factor         :     4.1000 
 Damping factor alpha9(ATM):    16.0000 
 ad hoc parameters k1-k3   :    16.0000     1.3333    -4.0000 

 Edisp/kcal,au: -20.754961876694  -0.033075133557 
 E6   /kcal   : -10.244971957 
 E8   /kcal   : -10.512995486 
 E6(ABC)      :   0.003005566 
 % E8         :  50.652926023 
 % E6(ABC)    :  -0.014481190 

-------------------------   ----------------
Dispersion correction           -0.033075134
-------------------------   ----------------

------------------   -----------------
SRB correction            -0.048420030
------------------   -----------------

-------------------------   --------------------
FINAL SINGLE POINT ENERGY      -436.663609835924
-------------------------   --------------------



           ************************************************************
           *        Program running with 16 parallel MPI-processes    *
           *              working on a common directory               *
           ************************************************************
------------------------------------------------------------------------------
                         ORCA SCF GRADIENT CALCULATION
------------------------------------------------------------------------------

Nuc. rep. gradient        (SHARK) ... done (  0.0 sec)
HCore & Overlap gradient  (SHARK) ... done (  0.0 sec)
Split-RIJ-J gradient      (SHARK) ... done (  0.1 sec)
XC gradient                       ... done (  0.7 sec)
Dispersion correction             ... done (  0.1 sec)

-------------------
DISPERSION GRADIENT
-------------------

   1   O   :   -0.000620855   -0.000257779    0.000029410
   2   O   :   -0.000702133    0.000290614   -0.000052413
   3   N   :    0.000550544   -0.000693129    0.000109304
   4   C   :   -0.000327762   -0.000000845   -0.000004469
   5   C   :    0.000102528    0.000820967   -0.000119106
   6   C   :    0.000200494   -0.000840257    0.000125995
   7   C   :    0.000587998    0.000596318   -0.000079381
   8   C   :    0.000841793   -0.000079369    0.000023297
   9   C   :   -0.000972941    0.000017126   -0.000015924
  10   H   :   -0.000056348    0.000508628   -0.000075447
  11   H   :    0.000024971   -0.000532801    0.000078491
  12   H   :    0.000249875    0.000370281   -0.000050875
  13   H   :    0.000437724   -0.000065121    0.000015636
  14   H   :   -0.000315889   -0.000134633    0.000015481

Difference to translation invariance:
           :   -0.0000000000   -0.0000000000   -0.0000000000

Difference to rotation invariance:
           :   -0.0000000000    0.0000000000   -0.0000000000

Norm of the Dispersion gradient    ...    0.0026156347
RMS gradient                       ...    0.0004036012
MAX gradient                       ...    0.0009729409
SRB correction                   ... done

------------------
CARTESIAN GRADIENT
------------------

   1   O   :    0.001446910    0.015493760   -0.002255683
   2   O   :    0.007182985   -0.013797858    0.002131385
   3   N   :   -0.006092007    0.008123864   -0.001274416
   4   C   :    0.004188356   -0.000128954    0.000080203
   5   C   :   -0.000748796    0.002201160   -0.000331979
   6   C   :    0.001559695   -0.003840050    0.000583443
   7   C   :    0.000180301   -0.002748082    0.000406082
   8   C   :    0.002216126   -0.002589206    0.000404501
   9   C   :   -0.007210333   -0.000065555   -0.000100022
  10   H   :   -0.000930290    0.002816697   -0.000428678
  11   H   :   -0.001092193   -0.002398191    0.000337499
  12   H   :    0.000722567    0.001101021   -0.000150717
  13   H   :    0.001422282   -0.000192016    0.000051438
  14   H   :   -0.002845604   -0.003976589    0.000546944

Difference to translation invariance:
           :   -0.0000000000    0.0000000000    0.0000000000

Difference to rotation invariance:
           :   -0.0000059096   -0.0000086361   -0.0000505580

Norm of the Cartesian gradient     ...    0.0274716823
RMS gradient                       ...    0.0042389726
MAX gradient                       ...    0.0154937602

-------
TIMINGS
-------

Total SCF gradient time     ....        0.922 sec

Densities                   ....       0.001 sec  (  0.1%)
One electron gradient       ....       0.017 sec  (  1.9%)
RI-J Coulomb gradient       ....       0.099 sec  ( 10.8%)
XC gradient                 ....       0.733 sec  ( 79.6%)

Maximum memory used throughout the entire SCFGRAD-calculation: 31.3 MB
------------------------------------------------------------------------------
                         ORCA GEOMETRY RELAXATION STEP
------------------------------------------------------------------------------

Reading the OPT-File                    .... done
Getting information on internals        .... done
Copying old internal coords+grads       .... done
Making the new internal coordinates     .... (2022 redundants) done
Validating the new internal coordinates .... (2022 redundants) done
Calculating the B-matrix                .... done
Calculating the G,G- and P matrices     .... done
Transforming gradient to internals      .... done
Projecting the internal gradient        .... done
Number of atoms                         ....  14
Number of internal coordinates          ....  60
Current Energy                          ....  -436.663609836 Eh
Current gradient norm                   ....     0.027471682 Eh/bohr
Maximum allowed component of the step   ....  0.300
Current trust radius                    ....  0.300
Evaluating the initial hessian          ....  (Almloef) done
Projecting the Hessian                  .... done
Forming the augmented Hessian           .... done
Diagonalizing the augmented Hessian     .... done
Last element of RFO vector              ....  0.999149669
Lowest eigenvalues of augmented Hessian:
 -0.000911568  0.013413387  0.019912745  0.022241541  0.026468972
Length of the computed step             ....  0.041265412
The final length of the internal step   ....  0.041265412
Converting the step to Cartesian space:
 Initial RMS(Int)=    0.0053273418
Transforming coordinates:
 Iter   0:  RMS(Cart)=    0.0074601162 RMS(Int)=    0.8111499810
done
Storing new coordinates                 .... done

                                .--------------------.
          ----------------------|Geometry convergence|-------------------------
          Item                value                   Tolerance       Converged
          ---------------------------------------------------------------------
          RMS gradient        0.0031106194            0.0000300000      NO
          MAX gradient        0.0156113499            0.0001000000      NO
          RMS step            0.0053273418            0.0020000000      NO
          MAX step            0.0210166164            0.0040000000      NO
          ........................................................
          Max(Bonds)      0.0079      Max(Angles)    1.20
          Max(Dihed)        0.01      Max(Improp)    0.00
          ---------------------------------------------------------------------

The optimization has not yet converged - more geometry cycles are needed


    ---------------------------------------------------------------------------
                         Redundant Internal Coordinates
                            (Angstroem and degrees)

        Definition                    Value    dE/dq     Step     New-Value
    ----------------------------------------------------------------------------
     1. B(C   4,C   3)                1.3949  0.003871 -0.0034    1.3914   
     2. B(C   5,N   2)                1.3260 -0.003836  0.0030    1.3289   
     3. B(C   5,C   3)                1.3949 -0.000313  0.0003    1.3952   
     4. B(C   6,C   4)                1.3835  0.002225 -0.0020    1.3815   
     5. B(C   7,C   6)                1.3890 -0.000068  0.0001    1.3891   
     6. B(C   7,N   2)                1.3302 -0.001943  0.0016    1.3318   
     7. B(C   8,O   0)                1.3403 -0.010030  0.0079    1.3482   
     8. B(C   8,C   3)                1.4833  0.001387 -0.0017    1.4817   
     9. B(C   8,O   1)                1.2040 -0.015611  0.0074    1.2114   
    10. B(H   9,C   4)                1.0846  0.002928 -0.0042    1.0804   
    11. B(H  10,C   5)                1.0852  0.002651 -0.0038    1.0814   
    12. B(H  11,C   6)                1.0833  0.001326 -0.0019    1.0814   
    13. B(H  12,C   7)                1.0860  0.001432 -0.0021    1.0840   
    14. B(H  13,O   0)                0.9711  0.002433 -0.0026    0.9685   
    15. A(C   8,O   0,H  13)          108.64  0.007850   -1.20    107.44   
    16. A(C   5,N   2,C   7)          118.65  0.006097   -0.74    117.91   
    17. A(C   4,C   3,C   5)          118.74  0.001607   -0.25    118.49   
    18. A(C   5,C   3,C   8)          122.44 -0.002308    0.33    122.78   
    19. A(C   4,C   3,C   8)          118.82  0.000700   -0.09    118.74   
    20. A(C   3,C   4,H   9)          119.77  0.001551   -0.20    119.56   
    21. A(C   3,C   4,C   6)          118.37 -0.001785    0.20    118.57   
    22. A(C   6,C   4,H   9)          121.86  0.000234    0.01    121.87   
    23. A(C   3,C   5,H  10)          120.71  0.002025   -0.29    120.42   
    24. A(N   2,C   5,H  10)          116.77  0.001691   -0.23    116.54   
    25. A(N   2,C   5,C   3)          122.51 -0.003716    0.52    123.03   
    26. A(C   4,C   6,C   7)          118.71  0.000168   -0.06    118.65   
    27. A(C   7,C   6,H  11)          120.38 -0.000100    0.03    120.41   
    28. A(C   4,C   6,H  11)          120.92 -0.000068    0.03    120.95   
    29. A(N   2,C   7,C   6)          123.02 -0.002371    0.33    123.36   
    30. A(C   6,C   7,H  12)          120.73  0.001300   -0.19    120.54   
    31. A(N   2,C   7,H  12)          116.25  0.001071   -0.15    116.10   
    32. A(O   0,C   8,O   1)          122.29 -0.003784    0.47    122.76   
    33. A(O   1,C   8,C   3)          124.30  0.000040    0.02    124.32   
    34. A(O   0,C   8,C   3)          113.41  0.003744   -0.49    112.92   
    35. D(H   9,C   4,C   3,C   5)    180.00 -0.000001    0.00    180.00   
    36. D(C   6,C   4,C   3,C   8)    179.99 -0.000001    0.00    180.00   
    37. D(H   9,C   4,C   3,C   8)     -0.01 -0.000001    0.00     -0.00   
    38. D(C   6,C   4,C   3,C   5)     -0.00 -0.000001    0.00     -0.00   
    39. D(N   2,C   5,C   3,C   8)   -179.99  0.000001   -0.00   -180.00   
    40. D(N   2,C   5,C   3,C   4)      0.00  0.000001   -0.00      0.00   
    41. D(C   3,C   5,N   2,C   7)      0.00 -0.000001    0.00      0.00   
    42. D(H  10,C   5,N   2,C   7)   -180.00  0.000000   -0.00   -180.00   
    43. D(H  10,C   5,C   3,C   4)   -180.00 -0.000000    0.00   -180.00   
    44. D(H  10,C   5,C   3,C   8)      0.00  0.000000   -0.00      0.00   
    45. D(H  11,C   6,C   4,H   9)      0.00  0.000001   -0.00      0.00   
    46. D(C   7,C   6,C   4,H   9)   -180.00  0.000000   -0.00   -180.00   
    47. D(C   7,C   6,C   4,C   3)      0.00  0.000001   -0.00      0.00   
    48. D(H  11,C   6,C   4,C   3)   -180.00  0.000001   -0.00   -180.00   
    49. D(C   6,C   7,N   2,C   5)     -0.00  0.000000   -0.00     -0.00   
    50. D(H  12,C   7,C   6,H  11)      0.00  0.000002   -0.00      0.00   
    51. D(H  12,C   7,C   6,C   4)   -179.99  0.000002   -0.00   -180.00   
    52. D(N   2,C   7,C   6,H  11)   -180.00 -0.000001    0.00   -180.00   
    53. D(N   2,C   7,C   6,C   4)      0.00 -0.000001    0.00      0.00   
    54. D(H  12,C   7,N   2,C   5)    179.99 -0.000002    0.00    180.00   
    55. D(O   1,C   8,C   3,C   5)   -179.99 -0.000004    0.01   -179.98   
    56. D(O   1,C   8,C   3,C   4)      0.01 -0.000003    0.01      0.02   
    57. D(O   0,C   8,C   3,C   5)      0.02  0.000003   -0.01      0.01   
    58. D(O   0,C   8,C   3,C   4)   -179.98  0.000004   -0.01   -179.99   
    59. D(C   3,C   8,O   0,H  13)    180.00 -0.000004    0.01    180.01   
    60. D(O   1,C   8,O   0,H  13)      0.00  0.000002   -0.01     -0.01   
    ----------------------------------------------------------------------------

Geometry step timings:
Preparation and reading OPT file:      0.000 s (10.939 %)
Internal coordinates            :      0.000 s ( 1.633 %)
B/P matrices and projection     :      0.000 s (25.959 %)
Hessian update/contruction      :      0.000 s (12.000 %)
Making the step                 :      0.000 s (19.102 %)
Converting the step to Cartesian:      0.000 s ( 3.020 %)
Storing new data                :      0.000 s ( 1.469 %)
Checking convergence            :      0.000 s ( 0.082 %)
Final printing                  :      0.000 s (25.469 %)
Total time                      :      0.001 s

Time for energy+gradient        :      6.447 s
Time for complete geometry iter :      6.616 s

         *************************************************************
         *                GEOMETRY OPTIMIZATION CYCLE   2            *
         *************************************************************
---------------------------------
CARTESIAN COORDINATES (ANGSTROEM)
---------------------------------
  O     -2.312550   -1.181425    0.113147
  O     -2.427822    1.039338   -0.214961
  N      1.778428   -1.188384    0.170219
  C     -0.282759    0.013136   -0.034509
  C      0.409243    1.208834   -0.200467
  C      0.449996   -1.160048    0.147750
  C      1.790311    1.181505   -0.177397
  C      2.429215   -0.037522    0.010335
  C     -1.764021    0.038130   -0.058526
  H     -0.140857    2.127752   -0.342935
  H     -0.055834   -2.106733    0.279691
  H      2.366610    2.087977   -0.302484
  H      3.511430   -0.094439    0.033645
  H     -3.274646   -1.073678    0.084011

----------------------------
CARTESIAN COORDINATES (A.U.)
----------------------------
  NO LB      ZA    FRAG     MASS         X           Y           Z
   0 O     8.0000    0    15.999   -4.370086   -2.232569    0.213817
   1 O     8.0000    0    15.999   -4.587918    1.964064   -0.406217
   2 N     7.0000    0    14.007    3.360742   -2.245721    0.321666
   3 C     6.0000    0    12.011   -0.534337    0.024823   -0.065212
   4 C     6.0000    0    12.011    0.773357    2.284366   -0.378828
   5 C     6.0000    0    12.011    0.850369   -2.192173    0.279207
   6 C     6.0000    0    12.011    3.383197    2.232720   -0.335231
   7 C     6.0000    0    12.011    4.590551   -0.070906    0.019531
   8 C     6.0000    0    12.011   -3.333517    0.072055   -0.110598
   9 H     1.0000    0     1.008   -0.266181    4.020869   -0.648054
  10 H     1.0000    0     1.008   -0.105511   -3.981148    0.528539
  11 H     1.0000    0     1.008    4.472244    3.945705   -0.571613
  12 H     1.0000    0     1.008    6.635641   -0.178464    0.063580
  13 H     1.0000    0     1.008   -6.188183   -2.028957    0.158758

--------------------------------
INTERNAL COORDINATES (ANGSTROEM)
--------------------------------
 O      0   0   0     0.000000000000     0.00000000     0.00000000
 O      1   0   0     2.247827591359     0.00000000     0.00000000
 N      1   2   0     4.091381969937    93.15246044     0.00000000
 C      1   2   3     2.359836803947    62.28111970     0.00000000
 C      4   1   2     1.391439069926   150.48527466     0.02530478
 C      3   1   2     1.328924493458     1.13706367   359.78044252
 C      5   4   1     1.381531220436   118.56596617   179.98409674
 C      3   1   2     1.331754776908   119.04366171     0.00000000
 C      2   1   3     1.211412618394    30.29064691     0.00000000
 H      5   4   1     1.080424622618   119.56308722     0.00000000
 H      6   3   8     1.081426703254   116.54118606   180.00096474
 H      7   5   4     1.081415340149   120.94528482   180.00086498
 H      8   3   1     1.083961187782   116.09902829   179.99217441
 H      1   2   3     0.968548517966    80.48899296   180.00666007

---------------------------
INTERNAL COORDINATES (A.U.)
---------------------------
 O      0   0   0     0.000000000000     0.00000000     0.00000000
 O      1   0   0     4.247778543940     0.00000000     0.00000000
 N      1   2   0     7.731591432445    93.15246044     0.00000000
 C      1   2   3     4.459445280207    62.28111970     0.00000000
 C      4   1   2     2.629438774199   150.48527466     0.02530478
 C      3   1   2     2.511303345295     1.13706367   359.78044252
 C      5   4   1     2.610715652085   118.56596617   179.98409674
 C      3   1   2     2.516651805898   119.04366171     0.00000000
 C      2   1   3     2.289238083940    30.29064691     0.00000000
 H      5   4   1     2.041706645092   119.56308722     0.00000000
 H      6   3   8     2.043600303059   116.54118606   180.00096474
 H      7   5   4     2.043578829904   120.94528482   180.00086498
 H      8   3   1     2.048389784708   116.09902829   179.99217441
 H      1   2   3     1.830291446371    80.48899296   180.00666007



           ************************************************************
           *        Program running with 16 parallel MPI-processes    *
           *              working on a common directory               *
           ************************************************************
------------------------------------------------------------------------------
                   ___                                                        
                  /   \      - P O W E R E D   B Y -                         
                 /     \                                                     
                 |  |  |   _    _      __       _____    __    __             
                 |  |  |  | |  | |    /  \     |  _  \  |  |  /  |          
                  \  \/   | |  | |   /    \    | | | |  |  | /  /          
                 / \  \   | |__| |  /  /\  \   | |_| |  |  |/  /          
                |  |  |   |  __  | /  /__\  \  |    /   |      \           
                |  |  |   | |  | | |   __   |  |    \   |  |\   \          
                \     /   | |  | | |  |  |  |  | |\  \  |  | \   \       
                 \___/    |_|  |_| |__|  |__|  |_| \__\ |__|  \__/        
                                                                              
                      - O R C A' S   B I G   F R I E N D -                    
                                      &                                       
                       - I N T E G R A L  F E E D E R -                       
                                                                              
 v1 FN, 2020, v2 2021, v3 2022-2024                                           
------------------------------------------------------------------------------


----------------------
SHARK INTEGRAL PACKAGE
----------------------

Number of atoms                             ...     14
Number of basis functions                   ...    196
Number of shells                            ...     98
Maximum angular momentum                    ...      2
Integral batch strategy                     ... SHARK/LIBINT Hybrid
RI-J (if used) integral strategy            ... SPLIT-RIJ (Revised 2003 algorithm where possible)
Printlevel                                  ...      1
Contraction scheme used                     ... SEGMENTED contraction
Prescreening option                         ... SCHWARTZ
   Thresh                                   ... 2.500e-11
   Tcut                                     ... 2.500e-12
   Tpresel                                  ... 2.500e-12 
Coulomb Range Separation                    ... NOT USED
Exchange Range Separation                   ... NOT USED
Multipole approximations                    ... NOT USED
Finite Nucleus Model                        ... NOT USED
CABS basis                                  ... NOT available
Auxiliary Coulomb fitting basis             ... AVAILABLE
   # of basis functions in Aux-J            ...    300
   # of shells in Aux-J                     ...    128
   Maximum angular momentum in Aux-J        ...      2
Auxiliary J/K fitting basis                 ... NOT available
Auxiliary Correlation fitting basis         ... NOT available
Auxiliary 'external' fitting basis          ... NOT available

Checking pre-screening integrals            ... done (  0.0 sec) Dimension = 98
Check shell pair data                       ... done (  0.0 sec)
Shell pair information
Shell pair cut-off parameter TPreSel        ...   2.5e-12
Total number of shell pairs                 ...      4851
Shell pairs after pre-screening             ...      4401
Total number of primitive shell pairs       ...     18168
Primitive shell pairs kept                  ...     11706
          la=0 lb=0:   1555 shell pairs
          la=1 lb=0:   1527 shell pairs
          la=1 lb=1:    372 shell pairs
          la=2 lb=0:    597 shell pairs
          la=2 lb=1:    288 shell pairs
          la=2 lb=2:     62 shell pairs

Calculating one electron integrals          ... done (  0.0 sec)
Calculating RI/J V-Matrix + Cholesky decomp.... done (  0.0 sec)
Calculating Nuclear repulsion               ... done (  0.0 sec) ENN=    409.592279655583 Eh

Diagonalization of the overlap matrix:
Smallest eigenvalue                        ... 4.827e-05
Time for diagonalization                   ...    0.003 sec
Threshold for overlap eigenvalues          ... 1.000e-07
Number of eigenvalues below threshold      ... 0
Time for construction of square roots      ...    0.001 sec
Total time needed                          ...    0.004 sec

-------------------
DFT GRID GENERATION
-------------------

General Integration Accuracy     IntAcc      ... 4.959
Radial Grid Type                 RadialGrid  ... OptM3 with GC (2021)
Angular Grid (max. ang.)         AngularGrid ... 6 (Lebedev-590)
[...]
     24       0.038556   0.208050  -0.019547  -0.045258   0.051912  -0.037233
     25       0.034210   0.184850  -0.003361  -0.031309  -0.010435  -0.001391
     26      -0.004502  -0.024356   0.000223   0.003985   0.002248  -0.000301
     27       0.434406   0.002139  -0.282131   0.232289  -0.295700   0.425281
     28       0.283947  -0.011910  -0.226916   0.011363  -0.003408   0.336937
     29      -0.035641   0.001744   0.029365   0.001548  -0.003585  -0.043519
     30      -0.565225   0.355678  -0.334920   0.512117   0.325601   0.381286
     31       0.322194  -0.174707   0.021578  -0.263698  -0.056985  -0.236474
     32      -0.055030   0.030664  -0.007678   0.045785   0.012788   0.039895
     33       0.311551   0.113512  -0.081561   0.467509  -0.357681  -0.135462
     34      -0.151918  -0.037032  -0.045320  -0.340028   0.048606   0.244642
     35       0.026620   0.007024   0.005517   0.056419  -0.012095  -0.037804
     36      -0.008766  -0.000638  -0.133202   0.071264  -0.113716  -0.097700
     37      -0.376273  -0.018278  -0.780754  -0.398368  -0.540990   0.123107
     38       0.055087   0.002674   0.112720   0.059441   0.077815  -0.019408
     39      -0.015258  -0.173501  -0.001580   0.005547  -0.001108   0.002190
     40      -0.081013  -0.817726   0.000390   0.042783  -0.030740   0.042446
     41       0.011697   0.117883  -0.000083  -0.006210   0.004510  -0.006199
                 36         37         38         39         40         41    
      0      -0.033764  -0.000023   0.000235  -0.000125   0.000215   0.060914
      1       0.063632   0.000002  -0.000395   0.000152   0.000027  -0.006984
      2      -0.009817  -0.000000   0.000060  -0.000024  -0.000001   0.001862
      3      -0.242102  -0.000040  -0.000211   0.000141   0.000047  -0.000030
      4       0.344964   0.000033  -0.000080   0.000237  -0.000531  -0.000765
      5      -0.054017  -0.000005   0.000010  -0.000033   0.000078   0.000112
      6       0.022891  -0.000187   0.000191  -0.000623  -0.000240   0.000034
      7       0.014835  -0.000958  -0.000582   0.000081  -0.000075  -0.000024
      8      -0.001863   0.000138   0.000087  -0.000020   0.000008   0.000004
      9      -0.059327  -0.000027   0.001695  -0.000117  -0.001598  -0.000799
     10       0.090339  -0.000109  -0.002358   0.000766  -0.002009  -0.000027
     11      -0.014084   0.000016   0.000369  -0.000114   0.000273  -0.000007
     12      -0.017404   0.000996   0.001304   0.014611  -0.041904   0.000121
     13      -0.043266  -0.001067  -0.005282  -0.029060   0.068366  -0.000032
     14       0.006115   0.000170   0.000794   0.004467  -0.010613   0.000006
     15      -0.018889  -0.000134   0.035691  -0.011174  -0.001678  -0.000170
     16      -0.022606  -0.002789   0.074407  -0.022047  -0.004921  -0.000051
     17       0.003055   0.000408  -0.010429   0.003082   0.000699   0.000005
     18       0.007701   0.010305   0.013090   0.038335   0.021438  -0.000065
     19       0.019705   0.011082   0.020751   0.063331   0.028500   0.000111
     20      -0.002784  -0.001484  -0.002864  -0.008764  -0.003887  -0.000017
     21      -0.005517  -0.084496   0.000763   0.017867   0.006131  -0.000004
     22      -0.021541   0.007491  -0.001843  -0.003234  -0.002199  -0.000039
     23       0.003083  -0.002270   0.000281   0.000722   0.000407   0.000006
     24       0.433625   0.000032   0.000600  -0.000027  -0.000822   0.003009
     25      -0.537264  -0.000004   0.001115  -0.000685   0.000901   0.000851
     26       0.084903   0.000001  -0.000156   0.000100  -0.000144  -0.000084
     27       0.074591  -0.010298  -0.030801  -0.196359   0.462194  -0.000123
     28      -0.008781   0.016433   0.055427   0.337291  -0.778934   0.000611
     29       0.002314  -0.002556  -0.008563  -0.052221   0.120714  -0.000091
     30      -0.019216   0.019448  -0.438498   0.129627   0.024690  -0.000160
     31      -0.031289   0.037154  -0.838150   0.247031   0.048725   0.000401
     32       0.004363  -0.005189   0.117002  -0.034474  -0.006810  -0.000062
     33       0.049167  -0.106512  -0.150666  -0.452212  -0.209292  -0.000106
     34      -0.006482  -0.157334  -0.236291  -0.714622  -0.323816  -0.000340
     35       0.001646   0.021617   0.032594   0.098625   0.044630   0.000049
     36      -0.000269   0.974686  -0.016142  -0.182216  -0.058626  -0.000126
     37       0.024054  -0.057676   0.002244   0.014697   0.006097  -0.000013
     38      -0.003530   0.021968  -0.000554  -0.004681  -0.001707   0.000000
     39      -0.097382  -0.000023  -0.000145   0.000641  -0.000148  -0.991236
     40      -0.536699   0.000178  -0.001750   0.000218   0.000767   0.112984
     41       0.077592  -0.000027   0.000252  -0.000022  -0.000115  -0.030202


-----------
IR SPECTRUM
-----------

 Mode   freq       eps      Int      T**2         TX        TY        TZ
       cm**-1   L/(mol*cm) km/mol    a.u.
----------------------------------------------------------------------------
  6:     56.32   0.000669    3.38  0.003705  (-0.000775  0.008872  0.060217)
  7:    149.99   0.000004    0.02  0.000008  (-0.000049  0.000419  0.002844)
  8:    214.57   0.000708    3.58  0.001030  (-0.032083 -0.000438 -0.000350)
  9:    363.51   0.000850    4.29  0.000729  ( 0.000391 -0.003890 -0.026724)
 10:    383.52   0.001018    5.14  0.000828  ( 0.023857  0.015968 -0.001995)
 11:    414.33   0.000028    0.14  0.000021  ( 0.000068 -0.000665 -0.004509)
 12:    489.35   0.001909    9.65  0.001218  (-0.014428 -0.031464  0.004412)
 13:    594.78   0.015292   77.28  0.008023  ( 0.001204 -0.013024 -0.088613)
 14:    623.18   0.002489   12.58  0.001247  (-0.022964 -0.026573  0.003629)
 15:    652.84   0.006616   33.44  0.003163  (-0.054252 -0.014751  0.001349)
 16:    699.61   0.002741   13.85  0.001223  (-0.000472  0.005082  0.034592)
 17:    740.98   0.013492   68.18  0.005682  (-0.001053  0.010951  0.074572)
 18:    783.98   0.001458    7.37  0.000580  ( 0.024038 -0.001497  0.000488)
 19:    824.72   0.000597    3.02  0.000226  (-0.000211  0.002161  0.014873)
 20:    930.81   0.000058    0.29  0.000020  (-0.000050  0.000641  0.004377)
 21:    963.44   0.000169    0.85  0.000055  (-0.000098  0.001062  0.007315)
 22:    977.99   0.000092    0.46  0.000029  (-0.000087  0.000767  0.005353)
 23:   1034.17   0.002952   14.92  0.000891  ( 0.029032 -0.006789  0.001371)
 24:   1048.75   0.000957    4.83  0.000285  ( 0.007656  0.014889 -0.002095)
 25:   1102.13   0.034749  175.61  0.009839  (-0.068649 -0.070966  0.009501)
 26:   1127.08   0.002729   13.79  0.000756  (-0.015785 -0.022297  0.003053)
 27:   1201.91   0.024923  125.95  0.006471  (-0.058705 -0.054524  0.007210)
 28:   1222.74   0.010665   53.90  0.002722  ( 0.050842  0.011658 -0.001025)
 29:   1307.62   0.000058    0.29  0.000014  (-0.001092  0.003514 -0.000524)
 30:   1358.83   0.003107   15.70  0.000714  ( 0.020151  0.017390 -0.002274)
 31:   1372.20   0.013651   68.99  0.003104  ( 0.052352  0.018958 -0.002063)
 32:   1440.89   0.007122   35.99  0.001543  (-0.034943 -0.017802  0.002131)
 33:   1503.38   0.000564    2.85  0.000117  ( 0.001136 -0.010645  0.001589)
 34:   1593.39   0.001528    7.72  0.000299  ( 0.000773  0.017101 -0.002496)
 35:   1618.85   0.010675   53.94  0.002058  (-0.045149  0.004212 -0.001242)
 36:   1760.52   0.063351  320.15  0.011229  ( 0.060793 -0.085748  0.013445)
 37:   3110.85   0.004653   23.51  0.000467  (-0.021565 -0.001286 -0.000109)
 38:   3144.88   0.002769   14.00  0.000275  ( 0.011111  0.012193 -0.001634)
 39:   3148.13   0.001676    8.47  0.000166  ( 0.011040  0.006602 -0.000815)
 40:   3163.98   0.001360    6.87  0.000134  ( 0.006299  0.009627 -0.001325)
 41:   3686.70   0.012579   63.57  0.001065  (-0.031897 -0.006853  0.000570)

* The epsilon (eps) is given for a Dirac delta lineshape.
** The dipole moment derivative (T) already includes vibrational overlap.

The first frequency considered to be a vibration is 6
The total number of vibrations considered is 36


--------------------------
THERMOCHEMISTRY AT 298.15K
--------------------------

Temperature         ...   298.15 K
Pressure            ...     1.00 atm
Total Mass          ...   123.11 AMU
Quasi RRHO          ...     True
Cut-Off Frequency   ...     1.00 cm^-1

Throughout the following assumptions are being made:
  (1) The electronic state is orbitally nondegenerate
  (2) There are no thermally accessible electronically excited states
  (3) Hindered rotations indicated by low frequency modes are not
      treated as such but are treated as vibrations and this may
      cause some error
  (4) All equations used are the standard statistical mechanics
      equations for an ideal gas
  (5) All vibrations are strictly harmonic

freq.      56.32  E(vib)   ...       0.52 
freq.     149.99  E(vib)   ...       0.40 
freq.     214.57  E(vib)   ...       0.34 
freq.     363.51  E(vib)   ...       0.22 
freq.     383.52  E(vib)   ...       0.20 
freq.     414.33  E(vib)   ...       0.19 
freq.     489.35  E(vib)   ...       0.15 
freq.     594.78  E(vib)   ...       0.10 
freq.     623.18  E(vib)   ...       0.09 
freq.     652.84  E(vib)   ...       0.08 
freq.     699.61  E(vib)   ...       0.07 
freq.     740.98  E(vib)   ...       0.06 
freq.     783.98  E(vib)   ...       0.05 
freq.     824.72  E(vib)   ...       0.04 
freq.     930.81  E(vib)   ...       0.03 
freq.     963.44  E(vib)   ...       0.03 
freq.     977.99  E(vib)   ...       0.03 
freq.    1034.17  E(vib)   ...       0.02 
freq.    1048.75  E(vib)   ...       0.02 
freq.    1102.13  E(vib)   ...       0.02 
freq.    1127.08  E(vib)   ...       0.01 
freq.    1201.91  E(vib)   ...       0.01 
freq.    1222.74  E(vib)   ...       0.01 
freq.    1307.62  E(vib)   ...       0.01 
freq.    1358.83  E(vib)   ...       0.01 
freq.    1372.20  E(vib)   ...       0.01 
freq.    1440.89  E(vib)   ...       0.00 
freq.    1503.38  E(vib)   ...       0.00 
freq.    1593.39  E(vib)   ...       0.00 
freq.    1618.85  E(vib)   ...       0.00 
freq.    1760.52  E(vib)   ...       0.00 
freq.    3110.85  E(vib)   ...       0.00 
freq.    3144.88  E(vib)   ...       0.00 
freq.    3148.13  E(vib)   ...       0.00 
freq.    3163.98  E(vib)   ...       0.00 
freq.    3686.70  E(vib)   ...       0.00 

------------
INNER ENERGY
------------

The inner energy is: U= E(el) + E(ZPE) + E(vib) + E(rot) + E(trans)
    E(el)   - is the total energy from the electronic structure calculation
              = E(kin-el) + E(nuc-el) + E(el-el) + E(nuc-nuc)
    E(ZPE)  - the the zero temperature vibrational energy from the frequency calculation
    E(vib)  - the the finite temperature correction to E(ZPE) due to population
              of excited vibrational states
    E(rot)  - is the rotational thermal energy
    E(trans)- is the translational thermal energy

Summary of contributions to the inner energy U:
Electronic energy                ...   -436.66433130 Eh
Zero point energy                ...      0.10208672 Eh      64.06 kcal/mol
Thermal vibrational correction   ...      0.00433147 Eh       2.72 kcal/mol
Thermal rotational correction    ...      0.00141627 Eh       0.89 kcal/mol
Thermal translational correction ...      0.00141627 Eh       0.89 kcal/mol
-----------------------------------------------------------------------
Total thermal energy                   -436.55508057 Eh


Summary of corrections to the electronic energy:
(perhaps to be used in another calculation)
Total thermal correction                  0.00716401 Eh       4.50 kcal/mol
Non-thermal (ZPE) correction              0.10208672 Eh      64.06 kcal/mol
-----------------------------------------------------------------------
Total correction                          0.10925073 Eh      68.56 kcal/mol


--------
ENTHALPY
--------

The enthalpy is H = U + kB*T
                kB is Boltzmann's constant
Total thermal energy              ...   -436.55508057 Eh 
Thermal Enthalpy correction       ...      0.00094421 Eh       0.59 kcal/mol
-----------------------------------------------------------------------
Total Enthalpy                    ...   -436.55413636 Eh


Note: Only C1 symmetry has been detected, increase convergence thresholds 
      if your molecule has a higher symmetry. Symmetry factor of 1.0 is   
      used for the rotational entropy correction. 
 

Note: Rotational entropy computed according to Herzberg 
Infrared and Raman Spectra, Chapter V,1, Van Nostrand Reinhold, 1945 
Point Group:  C1, Symmetry Number:   1  
Rotational constants in cm-1:     0.132488     0.041672     0.031701 

Vibrational entropy computed according to the QRRHO of S. Grimme
Chem.Eur.J. 2012 18 9955 using a reference frequency of 100.0 cm-1


-------
ENTROPY
-------

The entropy contributions are T*S = T*(S(el)+S(vib)+S(rot)+S(trans))
     S(el)   - electronic entropy
     S(vib)  - vibrational entropy
     S(rot)  - rotational entropy
     S(trans)- translational entropy
The entropies will be listed as multiplied by the temperature to get
units of energy

Electronic entropy                ...      0.00000000 Eh      0.00 kcal/mol
Vibrational entropy               ...      0.00709413 Eh      4.45 kcal/mol
Rotational entropy                ...      0.01359468 Eh      8.53 kcal/mol
Translational entropy             ...      0.01916571 Eh     12.03 kcal/mol
-----------------------------------------------------------------------
Final entropy term                ...      0.03985451 Eh     25.01 kcal/mol

In case the symmetry of your molecule has not been determined correctly
or in case you have a reason to use a different symmetry number we print 
out the resulting rotational entropy values for sn=1,12:

 non-linear molecules -----------------------------------
|  sn= 1 | S(rot)=       0.01359468 Eh      8.53 kcal/mol|
|  sn= 2 | S(rot)=       0.01294022 Eh      8.12 kcal/mol|
|  sn= 3 | S(rot)=       0.01255739 Eh      7.88 kcal/mol|
|  sn= 4 | S(rot)=       0.01228577 Eh      7.71 kcal/mol|
|  sn= 5 | S(rot)=       0.01207508 Eh      7.58 kcal/mol|
|  sn= 6 | S(rot)=       0.01190294 Eh      7.47 kcal/mol|
|  sn= 7 | S(rot)=       0.01175739 Eh      7.38 kcal/mol|
|  sn= 8 | S(rot)=       0.01163131 Eh      7.30 kcal/mol|
|  sn= 9 | S(rot)=       0.01152010 Eh      7.23 kcal/mol|
|  sn=10 | S(rot)=       0.01142062 Eh      7.17 kcal/mol|
|  sn=11 | S(rot)=       0.01133063 Eh      7.11 kcal/mol|
|  sn=12 | S(rot)=       0.01124848 Eh      7.06 kcal/mol|
 linear molecules ---------------------------------------
|  Dinfh | S(rot)=       0.00858456 Eh      5.39 kcal/mol|
|  Cinfv | S(rot)=       0.00923902 Eh      5.80 kcal/mol|
 --------------------------------------------------------


-------------------
GIBBS FREE ENERGY
-------------------

The Gibbs free energy is G = H - T*S

Total enthalpy                    ...   -436.55413636 Eh 
Total entropy correction          ...     -0.03985451 Eh    -25.01 kcal/mol
-----------------------------------------------------------------------
Final Gibbs free energy         ...   -436.59399087 Eh

For completeness - the Gibbs free energy minus the electronic energy
G-E(el)                           ...      0.07034043 Eh     44.14 kcal/mol


Maximum memory used throughout the entire PROP-calculation: 45.1 MB

--------------------------------
SUGGESTED CITATIONS FOR THIS RUN
--------------------------------

Below you find a list of papers that are relevant to this ORCA run
We neither can nor want to force you to cite these papers, but we appreciate if you do
You receive ORCA, which is the product of decades of hard work by many enthusiastic individuals, for free
The only thing we kindly ask in return is that you cite our papers,
We deeply appreciate it, if you show your appreciation for ORCA by not just citing the generic ORCA reference.

Please note that relegating all ORCA citations to the supporting information does *not* help us.
SI sections are not indexed - citations you put there will not count into any citation statistics
But we need these citations in order to attract the funding resources that allow us to do what we are doing

Therefore, if you are a happy ORCA user, please consider citing a few of the papers listed below in the main body of your paper

In addition to the list printed below, the program has created the file m1_00_Vitamin_B3-GFN1_0-B97-3C-TZ.bibtex that contains the list in bibtex format
You can import this file easily into all common literature databanks and citation aid programs


List of essential papers. We consider these as the minimum necessary citations

  1. Neese,F.
     Software update: the ORCA program system, version 5.0
     WIRES Comput. Molec. Sci., 2022 12(1)e1606
     doi.org/10.1002/wcms.1606

List of papers to cite with high priority. The work reported in these papers was absolutely
necessary for this run to complete.
Our perspective: the developers of density functionals and basis sets usually get cited in chemistry papers
Good! But without the algorithms to do something with them, the functionals or basis sets would not do anything.
Hence, in our opinion, the algorithm design and method developments papers are equally worthy of getting cited

  1. Neese,F.
     An improvement of the resolution of the identity approximation for the formation of the Coulomb matrix
     J. Comp. Chem., 2003 24(14)1740-1747
     doi.org/10.1002/jcc.10318
  2. Bykov,D.; Petrenko,T.; Izsak,R.; Kossmann,S.; Becker,U.; Valeev,E.; Neese,F.
     Efficient implementation of the analytic second derivatives of Hartree-Fock and hybrid DFT energies: a detailed analysis of different approximations
     Molec. Phys., 2015 113 1961-1977
     doi.org/10.1080/00268976.2015.1025114
  3. Neese,F.
     The SHARK Integral Generation and Digestion System
     J. Comp. Chem., 2022  1-16
     doi.org/10.1002/jcc.26942
  4. Grimme,S.; Antony,J.; Ehrlich,S.; Krieg,H.
     A consistent and accurate ab initio parametrization of density functional dispersion correction (DFT-D) for the 94 elements H-Pu
     J. Chem. Phys., 2010 132 154104
     doi.org/10.1063/1.3382344
  5. Grimme,S.; Ehrlich,S.; Goerigk,L.
     Effect of the damping function in dispersion corrected density functional theory
     J. Comput. Chem., 2011 32(7)1456-1465
     doi.org/10.1002/jcc.21759

List of suggested additional citations. These are papers that are important in the 'surrounding' of 
of this run, or papers that preceded the highly important papers. If you like your results we are grateful for a citation.

  1. Neese,F.
     The ORCA program system
     WIRES Comput. Molec. Sci., 2012 2(1)73-78
     doi.org/10.1002/wcms.81
  2. Neese,F.
     Software update: the ORCA program system, version 4.0
     WIRES Comput. Molec. Sci., 2018 8(1)1-6
     doi.org/10.1002/wcms.1327
  3. Neese,F.; Wennmohs,F.; Becker,U.; Riplinger,C.
     The ORCA quantum chemistry program package
     J. Chem. Phys., 2020 152 Art. No. L224108
     doi.org/10.1063/5.0004608

List of optional additional citations

  1. Neese,F.
     Approximate second-order SCF convergence for spin unrestricted wavefunctions
     Chem. Phys. Lett., 2000 325(1-3)93-98
     doi.org/10.1016/s0009-2614(00)00662-x

Timings for individual modules:

Sum of individual times          ...       59.115 sec (=   0.985 min)
Startup calculation              ...       12.396 sec (=   0.207 min)  21.0 %
SCF iterations                   ...       14.289 sec (=   0.238 min)  24.2 %
Property integrals               ...       12.506 sec (=   0.208 min)  21.2 %
SCF Response                     ...        6.603 sec (=   0.110 min)  11.2 %
Property calculations            ...        5.869 sec (=   0.098 min)   9.9 %
SCF Gradient evaluation          ...        7.415 sec (=   0.124 min)  12.5 %
Geometry relaxation              ...        0.036 sec (=   0.001 min)   0.1 %
                             ****ORCA TERMINATED NORMALLY****
TOTAL RUN TIME: 0 days 0 hours 1 minutes 0 seconds 803 msec
