
                                 *****************
                                 * O   R   C   A *
                                 *****************

                                            #,                                       
                                            ###                                      
                                            ####                                     
                                            #####                                    
                                            ######                                   
                                           ########,                                 
                                     ,,################,,,,,                         
                               ,,#################################,,                 
                          ,,##########################################,,             
                       ,#########################################, ''#####,          
                    ,#############################################,,   '####,        
                  ,##################################################,,,,####,       
                ,###########''''           ''''###############################       
              ,#####''   ,,,,##########,,,,          '''####'''          '####       
            ,##' ,,,,###########################,,,                        '##       
           ' ,,###''''                  '''############,,,                           
         ,,##''                                '''############,,,,        ,,,,,,###''
      ,#''                                            '''#######################'''  
     '                                                          ''''####''''         
             ,#######,   #######,   ,#######,      ##                                
            ,#'     '#,  ##    ##  ,#'     '#,    #''#        ,####,   ,####,        
            ##       ##  ##   ,#'  ##            #'  '#       #'       #'  '#        
            ##       ##  #######   ##           ,######,      #####,   #    #        
            '#,     ,#'  ##    ##  '#,     ,#' ,#      #,     #,   #   #,  ,#        
             '#######'   ##     ##  '#######'  #'      '#     '####' # '####'        



                #########################################################
                #                        -***-                          #
                #          Department of theory and spectroscopy        #
                #                                                       #
                #                      Frank Neese                      #
                #                                                       #
                #     Directorship, Architecture, Infrastructure        #
                #                    SHARK, DRIVERS                     #
                #        Core code/Algorithms in most modules           #
                #                                                       #
                #        Max Planck Institute fuer Kohlenforschung      #
                #                Kaiser Wilhelm Platz 1                 #
                #                 D-45470 Muelheim/Ruhr                 #
                #                      Germany                          #
                #                                                       #
                #                  All rights reserved                  #
                #                        -***-                          #
                #########################################################


                         Program Version 6.0.1  -  RELEASE   -


 With contributions from (in alphabetic order):
[Max-Planck-Institut fuer Kohlenforschung]                               
  Daniel Aravena         : Magnetic Suceptibility                        
  Michael Atanasov       : Ab Initio Ligand Field Theory (pilot matlab implementation)
  Alexander A. Auer      : GIAO ZORA, VPT2 properties, NMR spectrum      
  Ute Becker             : All parallelization in ORCA, NUMFREQ, NUMCALC 
  Giovanni Bistoni       : ED, misc. LED, open-shell LED, HFLD           
  Martin Brehm           : Molecular dynamics                            
  Dmytro Bykov           : pre 5.0 version of the SCF Hessian            
  Marcos Casanova-Páez   : Triplet and SCS-CIS(D). UHF-(DLPNO)-IP/EA/STEOM-CCSD. UHF-CVS-IP/STEOM-CCSD   
  Vijay G. Chilkuri      : MRCI spin determinant printing, contributions to CSF-ICE 
  Pauline Colinet        : FMM embedding                                 
  Dipayan Datta          : RHF DLPNO-CCSD density                        
  Achintya Kumar Dutta   : EOM-CC, STEOM-CC                              
  Nicolas Foglia         : Exact transition moments, OPA infrastructure, MCD improvements    
  Dmitry Ganyushin       : Spin-Orbit,Spin-Spin,Magnetic field MRCI      
  Miquel Garcia-Rates    : C-PCM and meta-GGA Hessian, CCSD/C-PCM, Gaussian charge scheme 
  Tiago L. C. Gouveia    : GS-ROHF, GS-ROCIS                             
  Yang Guo               : DLPNO-NEVPT2, F12-NEVPT2, CIM, IAO-localization        
  Andreas Hansen         : Spin unrestricted coupled pair/coupled cluster methods 
  Ingolf Harden          : AUTO-CI MPn and infrastructure                
  Benjamin Helmich-Paris : MC-RPA, TRAH-(SCF,CASSCF), AVAS, COSX integrals, SCF dyn. polar. 
  Lee Huntington         : MR-EOM, pCC                                   
  Robert Izsak           : Overlap fitted RIJCOSX, COSX-SCS-MP3, EOM     
  Riya Kayal             : Wick's Theorem for AUTO-CI, AUTO-CI UHF-CCSDT 
  Emily Kempfer          : AUTO-CI, RHF CISDT and CCSDT                  
  Christian Kollmar      : KDIIS, OOCD, Brueckner-CCSD(T), CCSD density, CASPT2, CASPT2-K, improved NEVPT2 
  Axel Koslowski         : Symmetry handling                             
  Simone Kossmann        : meta-GGA functionals, TD-DFT gradient, OOMP2, (MP2 Hessian; deprecated post 5.0) 
  Lucas Lang             : DCDCAS                                        
  Marvin Lechner         : AUTO-CI (C++ implementation), FIC-MRCC        
  Spencer Leger          : CASSCF response                               
  Dagmar Lenk            : GEPOL surface, SMD, ORCA-2-JSON               
  Dimitrios Liakos       : Extrapolation schemes; Compound Job, initial MDCI parallelization 
  Dimitrios Manganas     : Further ROCIS development; embedding schemes. LFT, Crystal Embedding 
  Dimitrios Pantazis     : SARC Basis sets                               
  Anastasios Papadopoulos: AUTO-CI, single reference methods and gradients 
  Taras Petrenko         : pre 6.0 DFT Hessian and TD-DFT gradient, (ASA, deprecated), ECA, 1-Electron XAS/XES, NRVS 
  Peter Pinski           : DLPNO-MP2, DLPNO-MP2 Gradient                 
  Christoph Reimann      : Effective Core Potentials                     
  Marius Retegan         : Local ZFS, SOC                                
  Christoph Riplinger    : Optimizer, TS searches, QM/MM, DLPNO-CCSD(T), (RO)-DLPNO pert. Triples 
  Michael Roemelt        : Original ROCIS implementation                 
  Masaaki Saitow         : Open-shell DLPNO-CCSD energy and density      
  Barbara Sandhoefer     : DKH picture change effects                    
  Kantharuban Sivalingam : CASSCF convergence/infrastructure, NEVPT2 and variants, FIC-MRCI 
  Bernardo de Souza      : ESD, SOC TD-DFT                               
  Georgi L. Stoychev     : AutoAux, RI-MP2 NMR, DLPNO-MP2 response, X2C  
  Van Anh Tran           : RI-MP2 g-tensors                              
  Willem Van den Heuvel  : Paramagnetic NMR                              
  Zikuan Wang            : NOTCH, Electric field optimization            
  Frank Wennmohs         : Technical directorship and infrastructure     
  Hang Xu                : AUTO-CI-Response properties                   
                                                                         
[FACCTs GmbH]                                                            
  Markus Bursch, Miquel Garcia-Rates, Christoph Riplinger, Bernardo de Souza, Georgi L. Stoychev 
                                                                 
  APM, Basis sets (HGBS, AHGBS, def-TZVP (Ac-Lr), def2-XVPD (La-Lu)), CI-OPT, improved COSX, DLPNO-Multilevel,           
  DOCKER, DRACO, updates on ESD, GOAT, IRC, LR-CPCM, MBIS, meta-GGA TD-DFT gradient, ML-optimized integration grids, 
  MM, NACMEs, nearIR, NEB, NEB-TS, NL-DFT gradient (VV10), 2- and 3-layer-ONIOM, interface openCOSMO-RS, QMMM,   
  Crystal-QMMM, SF, symmetry and pop. for TD-DFT, r2SCAN hybrids, SOLVATOR                                   
                                                                         
[Other institutions]                                                     
  V. Asgeirsson          : NEB                                           
  Christoph Bannwarth    : sTDA-DFT, sTD-DFT, PBEh-3c, B97-3c, D3        
  Sebastian Ehlert       : rSCAN, r2SCAN, r2SCAN-3c, D4, dhf basis sets  
  Marvin Friede          : D4 for Fr, Ra, Ac-Lr                          
  Lars Goerigk           : TD-DFT with DH, B97 family of functionals     
  Stefan Grimme          : VdW corrections, initial TS optimization, DFT functionals, gCP, sTDA/sTD-DF 
  Waldemar Hujo          : DFT-NL                                        
  H. Jonsson             : NEB                                           
  Holger Kruse           : gCP                                           
  Marcel Mueller         : wB97X-3c, vDZP basis set                      
  Hagen Neugebauer       : wr2SCAN                                       
  Tobias Risthaus        : range-separated hybrid DFT                    
  Lukas Wittmann         : regularized MP2, r2SCAN double-hybrids, wr2SCAN        
                                                                         
We gratefully acknowledge several colleagues who have allowed us to      
interface, adapt or use parts of their codes:                            
  Ed Valeev, F. Pavosevic, A. Kumar             : LibInt (2-el integral package), F12 methods 
  Garnet Chan, S. Sharma, J. Yang, R. Olivares  : DMRG                   
  Ulf Ekstrom                                   : XCFun DFT Library      
  Mihaly Kallay                                 : mrcc  (arbitrary order and MRCC methods)
  Frank Weinhold                                : gennbo (NPA and NBO analysis)           
  Simon Mueller                                 : openCOSMO-RS                            
  Christopher J. Cramer and Donald G. Truhlar   : smd solvation model                     
  S Lehtola, MJT Oliveira, MAL Marques          : LibXC Library                           
  Liviu Ungur et al                             : ANISO software                          


 Your calculation uses the libint2 library for the computation of 2-el integrals
 For citations please refer to: http://libint.valeyev.net

 Your ORCA version has been built with support for libXC version: 6.2.2
 For citations please refer to: https://libxc.gitlab.io

 This ORCA versions uses:
   CBLAS   interface :  Fast vector & matrix operations
   LAPACKE interface :  Fast linear algebra routines
   SCALAPACK package :  Parallel linear algebra routines
   Shared memory     :  Shared parallel matrices
   BLAS/LAPACK       :  OpenBLAS 0.3.27  USE64BITINT DYNAMIC_ARCH NO_AFFINITY Zen SINGLE_THREADED
        Core in use  :  Zen
   Copyright (c) 2011-2014, The OpenBLAS Project


NOTE: MaxCore=6000 MB was set to SCF,MP2,MDCI,CIPSI,MRCI and CIS
      => If you want to overwrite this, your respective input block should be placed after the MaxCore statement
Your calculation utilizes the atom-pairwise dispersion correction
with the Becke-Johnson damping scheme (D3BJ)


Your calculation employs the composite approach B97-3c by Grimme and coworkers.
For the correct reference, please check the publication list of the Grimme group:
http://www.thch.uni-bonn.de/tc/index.php?section=publikationen&subsection=grimme#2017
   

XCFun DFT library Copyright 2009-2010 Ulf Ekstrom and contributors.
See http://admol.org/xcfun for more information.
This is free software; see the source code for copying conditions.
There is ABSOLUTELY NO WARRANTY; not even for MERCHANTABILITY or FITNESS FOR A PARTICULAR PURPOSE.
For details see the documentation.
Scientific users of this library should cite U. Ekstrom, L. Visscher, R. Bast, A. J. Thorvaldsen and K. Ruud;
J.Chem.Theor.Comp. 2010, DOI: 10.1021/ct100117s
XCFun Version 0.99 

================================================================================

----- Orbital basis set information -----
Your calculation utilizes the basis: def2-mTZVP
----- AuxJ basis set information -----
Your calculation utilizes the basis: def2-mTZVP/J
================================================================================
                                        WARNINGS
                       Please study these warnings very carefully!
================================================================================


WARNING: Geometry Optimization
  ===> : Switching off AutoStart
         For restart on a previous wavefunction, please use MOREAD

================================================================================
                                       INPUT FILE
================================================================================
NAME = m1_00_Vitamin_B5-QM3_0000-B97-3C-TZ.inp
|  1> %pal nprocs 16 end
|  2> %MaxCore 6000
|  3> # put your comments here
|  4> ! B97-3C  OPT  FREQ DEFGRID3 NOTRAH
|  5> %scf MaxIter 800 end
|  6> %output
|  7> Print [P_Hirshfeld] 1
|  8> end
|  9> %geom
| 10> MaxIter 3000
| 11>  TolE 1e-6 #TolE 5e-6 Energy change (a.u.)
| 12>  TolRMSG 3e-5 #TolRMSG 1e-4 RMS gradient (a.u.)
| 13>  TolMaxG 1e-4 #TolMaxG 3e-3 Max. element of gradient (a.u.)
| 14>  TolRMSD 2e-3 #TolRMSD 2e-3 RMS displacement (a.u.)
| 15>  TolMaxD 4e-3 #TolMaxD 4e-3 Max. displacement (a.u.)
| 16> end
| 17> * xyz 0 1
| 18>  O       1.55356103      -1.05666851      -0.43508732
| 19>  O      -0.63716481       1.61578176       1.18663592
| 20>  O      -1.59824178       0.35638892      -0.84963265
| 21>  O      -1.85966552      -0.45765890       2.10662073
| 22>  O       0.15315258      -1.35274946       1.80286940
| 23>  N      -0.89016597      -1.79273916      -0.88660180
| 24>  C       1.11702455       1.33518669      -0.52554247
| 25>  C       0.77811599      -0.06923552      -1.03176306
| 26>  C       0.74556748       1.53868829       0.93444385
| 27>  C       0.46389908       2.40109036      -1.39948132
| 28>  C       2.63773803       1.48514146      -0.63569938
| 29>  C      -0.69699088      -0.45220725      -0.92528972
| 30>  C      -2.06189838      -2.33357994      -0.24248197
| 31>  C      -1.75842262      -2.63958261       1.22223407
| 32>  C      -1.05625570      -1.43541959       1.78275251
| 33>  H       1.00526771      -0.09997679      -2.10718422
| 34>  H       1.19774195       2.47210301       1.28260090
| 35>  H       1.16843857       0.74026426       1.54294053
| 36>  H       0.82729055       2.33588959      -2.42411549
| 37>  H       0.70966253       3.39339488      -1.02666137
| 38>  H      -0.61419689       2.31601777      -1.43252685
| 39>  H       2.94507639       2.49722183      -0.37465578
| 40>  H       2.97636068       1.29059576      -1.65102455
| 41>  H       3.16000483       0.79642810       0.02157144
| 42>  H      -0.03798934      -2.33127455      -0.84883712
| 43>  H       1.25828909      -1.17814919       0.48382136
| 44>  H      -2.85200072      -1.59061345      -0.31463933
| 45>  H      -2.38654357      -3.24642478      -0.75507934
| 46>  H      -1.12022469       1.40320958       0.36749539
| 47>  H      -1.08976289      -3.49720288       1.30381018
| 48>  H      -2.67797379      -2.84018674       1.77596610
| 49>  H      -1.35969348       0.39626704       2.05254137
| 50> *
| 51> 
| 52> 
| 53> 
| 54> 
| 55>                          ****END OF INPUT****
================================================================================

                       *****************************
                       * Geometry Optimization Run *
                       *****************************

Geometry optimization settings:
Update method            Update   .... BFGS
Choice of coordinates    CoordSys .... (2022) Redundant Internals
Initial Hessian          InHess   .... Almloef's Model
Max. no of cycles        MaxIter  .... 3000

Convergence Tolerances:
Energy Change            TolE     ....  1.0000e-06 Eh
Max. Gradient            TolMAXG  ....  1.0000e-04 Eh/bohr
RMS Gradient             TolRMSG  ....  3.0000e-05 Eh/bohr
Max. Displacement        TolMAXD  ....  4.0000e-03 bohr
RMS Displacement         TolRMSD  ....  2.0000e-03 bohr
Strict Convergence                .... False

------------------------------------------------------------------------------
                        ORCA OPTIMIZATION COORDINATE SETUP
------------------------------------------------------------------------------

The optimization will be done in redundant internal coordinates (2022)
Making redundant internal coordinates   ...  (2022 redundants) done
Evaluating the initial hessian          ...  (Almloef) done
Evaluating the coordinates              ...  done
Calculating the B-matrix                .... done
Calculating the G-matrix                .... done
Diagonalizing the G-matrix              .... done
Small eigenvalue found = 1.297e-02
Small eigenvalue found = 2.524e-02
The first mode is                       ....   57
The number of degrees of freedom        ....   90

    -----------------------------------------------------------------
                    Redundant Internal Coordinates


    -----------------------------------------------------------------
         Definition                    Initial Value    Approx d2E/dq
    -----------------------------------------------------------------
      1. B(C   7,C   6)                  1.5309         0.372402   
      2. B(C   7,O   0)                  1.3901         0.559404   
      3. B(C   8,C   6)                  1.5202         0.387295   
      4. B(C   8,O   1)                  1.4077         0.524455   
      5. B(C   9,C   6)                  1.5253         0.380103   
      6. B(C  10,C   6)                  1.5321         0.370766   
      7. B(C  11,N   5)                  1.3549         0.636539   
      8. B(C  11,O   2)                  1.2132         1.071472   
      9. B(C  11,C   7)                  1.5277         0.376710   
     10. B(C  12,N   5)                  1.4423         0.461704   
     11. B(C  13,C  12)                  1.5268         0.377988   
     12. B(C  14,C  13)                  1.5024         0.413428   
     13. B(C  14,O   4)                  1.2124         1.074556   
     14. B(C  14,O   3)                  1.3063         0.761099   
     15. B(H  15,C   7)                  1.0996         0.347649   
     16. B(H  16,C   8)                  1.0940         0.354786   
     17. B(H  17,C   8)                  1.0893         0.361030   
     18. B(H  18,C   9)                  1.0891         0.361268   
     19. B(H  19,C   9)                  1.0881         0.362560   
     20. B(H  20,C   9)                  1.0820         0.370905   
     21. B(H  21,C  10)                  1.0895         0.360825   
     22. B(H  22,C  10)                  1.0878         0.362967   
     23. B(H  23,C  10)                  1.0859         0.365618   
     24. B(H  24,N   5)                  1.0088         0.434640   
     25. B(H  24,O   0)                  2.0806         0.008475   
     26. B(H  25,O   0)                  0.9728         0.496076   
     27. B(H  25,O   4)                  1.7297         0.030763   
     28. B(H  26,C  12)                  1.0870         0.364153   
     29. B(H  27,C  12)                  1.0961         0.352120   
     30. B(H  28,O   1)                  0.9744         0.493101   
     31. B(H  28,O   2)                  1.6750         0.037599   
     32. B(H  29,C  13)                  1.0905         0.359389   
     33. B(H  30,C  13)                  1.0920         0.357481   
     34. B(H  31,O   3)                  0.9910         0.463985   
     35. B(H  31,O   4)                  2.3260         0.003441   
     36. B(H  31,O   1)                  1.6610         0.039582   
     37. A(C   7,O   0,H  25)          108.9560         0.360741   
     38. A(C   8,O   1,H  28)          108.9294         0.356437   
     39. A(C  14,O   3,H  31)          108.7325         0.375976   
     40. A(C  12,N   5,H  24)          117.9932         0.341517   
     41. A(C  11,N   5,H  24)          114.1296         0.360554   
     42. A(C  11,N   5,C  12)          119.9711         0.408401   
     43. A(C   7,C   6,C   8)          112.7244         0.365403   
     44. A(C   7,C   6,C  10)          106.6045         0.362688   
     45. A(C   8,C   6,C   9)          110.6158         0.366687   
     46. A(C   7,C   6,C   9)          110.9064         0.364233   
     47. A(C   9,C   6,C  10)          108.3869         0.363959   
     48. A(C   8,C   6,C  10)          107.3671         0.365128   
     49. A(C  11,C   7,H  15)          105.1069         0.322894   
     50. A(C   6,C   7,C  11)          114.8782         0.363675   
     51. A(O   0,C   7,C  11)          109.3077         0.387695   
     52. A(O   0,C   7,H  15)          106.5413         0.342686   
     53. A(O   0,C   7,C   6)          112.7204         0.386919   
     54. A(C   6,C   7,H  15)          107.6576         0.322286   
     55. A(H  16,C   8,H  17)          106.6868         0.290279   
     56. A(O   1,C   8,H  17)          108.7473         0.341155   
     57. A(O   1,C   8,C   6)          114.7979         0.385217   
     58. A(C   6,C   8,H  16)          108.5933         0.325451   
     59. A(O   1,C   8,H  16)          107.5927         0.340162   
     60. A(C   6,C   8,H  17)          110.0912         0.326386   
     61. A(H  18,C   9,H  19)          107.5518         0.291299   
     62. A(C   6,C   9,H  19)          110.1361         0.325608   
     63. A(C   6,C   9,H  18)          110.7528         0.325416   
     64. A(H  19,C   9,H  20)          107.8917         0.292508   
     65. A(H  18,C   9,H  20)          107.3991         0.292344   
     66. A(C   6,C   9,H  20)          112.9063         0.326829   
     67. A(H  21,C  10,H  23)          107.9684         0.291627   
     68. A(C   6,C  10,H  23)          111.8272         0.324727   
     69. A(H  21,C  10,H  22)          107.5754         0.291294   
     70. A(C   6,C  10,H  22)          111.0130         0.324339   
     71. A(C   6,C  10,H  21)          110.7146         0.324024   
     72. A(H  22,C  10,H  23)          107.5661         0.291899   
     73. A(O   2,C  11,C   7)          123.6805         0.435030   
     74. A(O   2,C  11,N   5)          123.4859         0.475446   
     75. A(N   5,C  11,C   7)          112.8095         0.396557   
     76. A(N   5,C  12,C  13)          110.0047         0.375216   
     77. A(H  26,C  12,H  27)          108.8392         0.290328   
     78. A(C  13,C  12,H  27)          109.9132         0.323751   
     79. A(N   5,C  12,H  27)          110.1238         0.332605   
     80. A(C  13,C  12,H  26)          110.1916         0.325544   
     81. A(N   5,C  12,H  26)          107.7320         0.334464   
     82. A(H  29,C  13,H  30)          109.5071         0.290416   
     83. A(C  14,C  13,H  30)          110.5861         0.329383   
     84. A(C  12,C  13,H  30)          110.8490         0.324556   
     85. A(C  14,C  13,H  29)          108.4114         0.329672   
     86. A(C  12,C  13,H  29)          110.5637         0.324840   
     87. A(C  12,C  13,C  14)          106.8681         0.370466   
     88. A(O   4,C  14,C  13)          121.8064         0.442621   
     89. A(O   3,C  14,C  13)          113.8895         0.416066   
     90. A(O   3,C  14,O   4)          123.9429         0.491660   
     91. D(O   0,C   7,C   6,C   8)    -67.1749         0.011078   
     92. D(O   0,C   7,C   6,C   9)    168.1713         0.011078   
     93. D(C  11,C   7,C   6,C   9)    -65.7217         0.011078   
     94. D(C  11,C   7,O   0,H  25)    -56.1164         0.027146   
     95. D(C   6,C   7,O   0,H  25)     72.9309         0.027146   
     96. D(C  11,C   7,C   6,C   8)     58.9321         0.011078   
     97. D(C  11,C   7,C   6,C  10)    176.4862         0.011078   
     98. D(H  15,C   7,O   0,H  25)   -169.2032         0.027146   
     99. D(O   0,C   7,C   6,C  10)     50.3792         0.011078   
    100. D(O   1,C   8,C   6,C   9)     53.6241         0.011932   
    101. D(O   1,C   8,C   6,C  10)    171.7081         0.011932   
    102. D(O   1,C   8,C   6,C   7)    -71.1886         0.011932   
    103. D(H  16,C   8,O   1,H  28)    128.4321         0.023689   
    104. D(C   6,C   8,O   1,H  28)      7.4370         0.023689   
    105. D(H  17,C   8,O   1,H  28)   -116.3715         0.023689   
    106. D(H  16,C   8,C   6,C   7)    168.3665         0.011932   
    107. D(H  16,C   8,C   6,C  10)     51.2632         0.011932   
    108. D(H  16,C   8,C   6,C   9)    -66.8208         0.011932   
    109. D(H  19,C   9,C   6,C  10)    -63.5104         0.011515   
    110. D(H  19,C   9,C   6,C   8)     53.9490         0.011515   
    111. D(H  19,C   9,C   6,C   7)    179.7886         0.011515   
    112. D(H  18,C   9,C   6,C  10)     55.3334         0.011515   
    113. D(H  18,C   9,C   6,C   8)    172.7928         0.011515   
    114. D(H  18,C   9,C   6,C   7)    -61.3676         0.011515   
    115. D(H  22,C  10,C   6,C   9)    -63.9072         0.010986   
    116. D(H  22,C  10,C   6,C   8)    176.5730         0.010986   
    117. D(H  22,C  10,C   6,C   7)     55.5337         0.010986   
    118. D(H  21,C  10,C   6,C   9)     55.5049         0.010986   
    119. D(H  21,C  10,C   6,C   8)    -64.0149         0.010986   
    120. D(H  21,C  10,C   6,C   7)    174.9458         0.010986   
    121. D(O   2,C  11,N   5,C  12)    -24.5740         0.032949   
    122. D(N   5,C  11,C   7,O   0)    -28.6158         0.010601   
    123. D(O   2,C  11,C   7,H  15)    -96.3289         0.010601   
    124. D(O   2,C  11,C   7,C   6)     21.8031         0.010601   
    125. D(O   2,C  11,C   7,O   0)    149.6516         0.010601   
    126. D(C   7,C  11,N   5,H  24)      5.2662         0.032949   
    127. D(C   7,C  11,N   5,C  12)    153.6974         0.032949   
    128. D(N   5,C  11,C   7,C   6)   -156.4643         0.010601   
    129. D(O   2,C  11,N   5,H  24)   -173.0052         0.032949   
    130. D(H  27,C  12,N   5,C  11)    146.8440         0.018200   
    131. D(H  26,C  12,N   5,H  24)    175.5170         0.018200   
    132. D(H  26,C  12,N   5,C  11)     28.2744         0.018200   
    133. D(C  13,C  12,N   5,H  24)     55.3808         0.018200   
    134. D(C  13,C  12,N   5,C  11)    -91.8617         0.018200   
    135. D(H  29,C  13,C  12,H  27)     50.6645         0.011394   
    136. D(H  29,C  13,C  12,H  26)    170.6091         0.011394   
    137. D(H  29,C  13,C  12,N   5)    -70.7556         0.011394   
    138. D(C  14,C  13,C  12,H  27)    168.4557         0.011394   
    139. D(C  14,C  13,C  12,H  26)    -71.5998         0.011394   
    140. D(C  14,C  13,C  12,N   5)     47.0355         0.011394   
    141. D(O   4,C  14,C  13,H  29)     25.8395         0.012652   
    142. D(O   4,C  14,C  13,C  12)    -93.3549         0.012652   
    143. D(O   3,C  14,C  13,H  30)    -40.7403         0.012652   
    144. D(O   3,C  14,C  13,H  29)   -160.8046         0.012652   
    145. D(O   3,C  14,C  13,C  12)     80.0010         0.012652   
    146. D(C  13,C  14,O   3,H  31)   -153.6606         0.044137   
    147. D(O   4,C  14,O   3,H  31)     19.5325         0.044137   
    -----------------------------------------------------------------

Number of atoms                         .... 32
Number of degrees of freedom            .... 147


         *************************************************************
         *                GEOMETRY OPTIMIZATION CYCLE   1            *
         *************************************************************
---------------------------------
CARTESIAN COORDINATES (ANGSTROEM)
---------------------------------
  O      1.553561   -1.056669   -0.435087
  O     -0.637165    1.615782    1.186636
  O     -1.598242    0.356389   -0.849633
  O     -1.859666   -0.457659    2.106621
  O      0.153153   -1.352749    1.802869
  N     -0.890166   -1.792739   -0.886602
  C      1.117025    1.335187   -0.525542
  C      0.778116   -0.069236   -1.031763
  C      0.745567    1.538688    0.934444
  C      0.463899    2.401090   -1.399481
  C      2.637738    1.485141   -0.635699
  C     -0.696991   -0.452207   -0.925290
  C     -2.061898   -2.333580   -0.242482
  C     -1.758423   -2.639583    1.222234
  C     -1.056256   -1.435420    1.782753
  H      1.005268   -0.099977   -2.107184
  H      1.197742    2.472103    1.282601
  H      1.168439    0.740264    1.542941
  H      0.827291    2.335890   -2.424115
  H      0.709663    3.393395   -1.026661
  H     -0.614197    2.316018   -1.432527
  H      2.945076    2.497222   -0.374656
  H      2.976361    1.290596   -1.651025
  H      3.160005    0.796428    0.021571
  H     -0.037989   -2.331275   -0.848837
  H      1.258289   -1.178149    0.483821
  H     -2.852001   -1.590613   -0.314639
  H     -2.386544   -3.246425   -0.755079
  H     -1.120225    1.403210    0.367495
  H     -1.089763   -3.497203    1.303810
  H     -2.677974   -2.840187    1.775966
  H     -1.359693    0.396267    2.052541

----------------------------
CARTESIAN COORDINATES (A.U.)
----------------------------
  NO LB      ZA    FRAG     MASS         X           Y           Z
   0 O     8.0000    0    15.999    2.935805   -1.996814   -0.822196
   1 O     8.0000    0    15.999   -1.204067    3.053385    2.242417
   2 O     8.0000    0    15.999   -3.020239    0.673477   -1.605573
   3 O     8.0000    0    15.999   -3.514259   -0.864850    3.980936
   4 O     8.0000    0    15.999    0.289416   -2.556326    3.406929
   5 N     7.0000    0    14.007   -1.682170   -3.387786   -1.675435
   6 C     6.0000    0    12.011    2.110870    2.523137   -0.993131
   7 C     6.0000    0    12.011    1.470426   -0.130836   -1.949750
   8 C     6.0000    0    12.011    1.408918    2.907699    1.765843
   9 C     6.0000    0    12.011    0.876642    4.537403   -2.644636
  10 C     6.0000    0    12.011    4.984602    2.806511   -1.201298
  11 C     6.0000    0    12.011   -1.317122   -0.854548   -1.748544
  12 C     6.0000    0    12.011   -3.896423   -4.409827   -0.458225
  13 C     6.0000    0    12.011   -3.322937   -4.988088    2.309688
  14 C     6.0000    0    12.011   -1.996034   -2.712550    3.368914
  15 H     1.0000    0     1.008    1.899681   -0.188929   -3.982001
  16 H     1.0000    0     1.008    2.263404    4.671598    2.423764
  17 H     1.0000    0     1.008    2.208029    1.398897    2.915735
  18 H     1.0000    0     1.008    1.563353    4.414192   -4.580914
  19 H     1.0000    0     1.008    1.341068    6.412587   -1.940109
  20 H     1.0000    0     1.008   -1.160664    4.376639   -2.707083
  21 H     1.0000    0     1.008    5.565388    4.719065   -0.707997
  22 H     1.0000    0     1.008    5.624507    2.438873   -3.119984
  23 H     1.0000    0     1.008    5.971544    1.505031    0.040764
  24 H     1.0000    0     1.008   -0.071789   -4.405470   -1.604070
  25 H     1.0000    0     1.008    2.377822   -2.226379    0.914290
  26 H     1.0000    0     1.008   -5.389500   -3.005824   -0.594582
  27 H     1.0000    0     1.008   -4.509914   -6.134854   -1.426893
  28 H     1.0000    0     1.008   -2.116918    2.651682    0.694466
  29 H     1.0000    0     1.008   -2.059353   -6.608756    2.463844
  30 H     1.0000    0     1.008   -5.060637   -5.367175    3.356090
  31 H     1.0000    0     1.008   -2.569448    0.748836    3.878741

--------------------------------
INTERNAL COORDINATES (ANGSTROEM)
--------------------------------
 O      0   0   0     0.000000000000     0.00000000     0.00000000
 O      1   0   0     3.817231512343     0.00000000     0.00000000
 O      2   1   0     2.579947471728    62.40121895     0.00000000
 O      2   1   3     2.576826770880    81.98771868    75.26837987
 O      4   2   1     2.223710566770    81.12335426    25.80398540
 N      3   2   1     2.263070828543   111.09454653    34.10517177
 C      1   2   3     2.433046964261    39.15651562    92.50582454
 C      1   2   3     1.390093830828    50.57298040    43.80158855
 C      2   1   3     1.407655081721    47.29687373   218.17390184
 C      7   1   2     1.525284441283   141.73184435   252.55673067
 C      7   1   2     1.532054328710    85.45757421   138.33965098
 C      3   2   1     1.213179682953    95.61468278     7.63787721
 C      6   3   2     1.442343906755    95.42938766    96.12768683
 C     13   6   3     1.526803277698   110.00472463   257.37378951
 C      5   4   2     1.212397388396    29.16535230   216.42046157
 H      8   1   2     1.099578828896   106.54131174   172.69413679
 H      9   2   1     1.094046672815   107.59265366   178.58844931
 H      9   2   1     1.089297525936   108.74731187   293.78484306
 H     10   7   1     1.089118764511   110.75279336   308.67750556
 H     10   7   1     1.088146428054   110.13608591   189.83371415
 H     10   7   1     1.081952066014   112.90630332    69.15904782
 H     11   7   1     1.089452754353   110.71464115   198.97610652
 H     11   7   1     1.087841224314   111.01298527    79.56398433
 H     11   7   1     1.085860779957   111.82718131   319.42338777
 H      6   3   2     1.008787165886   140.41349126   307.38754775
 H      1   2   3     0.972798147790    60.78571048   243.47740052
 H     13   6   3     1.086953355733   107.73195547    17.50992321
 H     13   6   3     1.096100481268   110.12380357   136.07957072
 H      2   1   3     0.974435727621    76.97600765   349.97626556
 H     14  13   6     1.090537951546   110.56370638   289.24440266
 H     14  13   6     1.091986965247   110.84898396   167.60907306
 H      4   2   1     0.991002587769    17.79005041   121.44156521

---------------------------
INTERNAL COORDINATES (A.U.)
---------------------------
 O      0   0   0     0.000000000000     0.00000000     0.00000000
 O      1   0   0     7.213522148102     0.00000000     0.00000000
 O      2   1   0     4.875394161469    62.40121895     0.00000000
 O      2   1   3     4.869496891519    81.98771868    75.26837987
 O      4   2   1     4.202203972303    81.12335426    25.80398540
 N      3   2   1     4.276584087613   111.09454653    34.10517177
 C      1   2   3     4.597792433422    39.15651562    92.50582454
 C      1   2   3     2.626896640718    50.57298040    43.80158855
 C      2   1   3     2.660082595476    47.29687373   218.17390184
 C      7   1   2     2.882369870357   141.73184435   252.55673067
 C      7   1   2     2.895163103551    85.45757421   138.33965098
 C      3   2   1     2.292577352019    95.61468278     7.63787721
 C      6   3   2     2.725634974698    95.42938766    96.12768683
 C     13   6   3     2.885240055222   110.00472463   257.37378951
 C      5   4   2     2.291099029550    29.16535230   216.42046157
 H      8   1   2     2.077902849271   106.54131174   172.69413679
 H      9   2   1     2.067448589348   107.59265366   178.58844931
 H      9   2   1     2.058474002377   108.74731187   293.78484306
 H     10   7   1     2.058136192240   110.75279336   308.67750556
 H     10   7   1     2.056298742626   110.13608591   189.83371415
 H     10   7   1     2.044593094797   112.90630332    69.15904782
 H     11   7   1     2.058767341574   110.71464115   198.97610652
 H     11   7   1     2.055721991143   111.01298527    79.56398433
 H     11   7   1     2.051979493684   111.82718131   319.42338777
 H      6   3   2     1.906331470939   140.41349126   307.38754775
 H      1   2   3     1.838322082909    60.78571048   243.47740052
 H     13   6   3     2.054044162681   107.73195547    17.50992321
 H     13   6   3     2.071329724856   110.12380357   136.07957072
 H      2   1   3     1.841416660312    76.97600765   349.97626556
 H     14  13   6     2.060818067069   110.56370638   289.24440266
 H     14  13   6     2.063556306129   110.84898396   167.60907306
 H      4   2   1     1.872723488890    17.79005041   121.44156521

---------------------
BASIS SET INFORMATION
---------------------
There are 4 groups of distinct atoms

 Group   1 Type O   : 11s6p2d contracted to 5s3p2d pattern {62111/411/11}
 Group   2 Type N   : 11s6p1d contracted to 5s3p1d pattern {62111/411/1}
 Group   3 Type C   : 11s6p1d contracted to 5s3p1d pattern {62111/411/1}
 Group   4 Type H   : 5s contracted to 3s pattern {311}

Atom   0O    basis set group =>   1
Atom   1O    basis set group =>   1
Atom   2O    basis set group =>   1
Atom   3O    basis set group =>   1
Atom   4O    basis set group =>   1
Atom   5N    basis set group =>   2
Atom   6C    basis set group =>   3
Atom   7C    basis set group =>   3
Atom   8C    basis set group =>   3
Atom   9C    basis set group =>   3
Atom  10C    basis set group =>   3
Atom  11C    basis set group =>   3
Atom  12C    basis set group =>   3
Atom  13C    basis set group =>   3
Atom  14C    basis set group =>   3
Atom  15H    basis set group =>   4
Atom  16H    basis set group =>   4
Atom  17H    basis set group =>   4
Atom  18H    basis set group =>   4
Atom  19H    basis set group =>   4
Atom  20H    basis set group =>   4
Atom  21H    basis set group =>   4
Atom  22H    basis set group =>   4
Atom  23H    basis set group =>   4
Atom  24H    basis set group =>   4
Atom  25H    basis set group =>   4
Atom  26H    basis set group =>   4
Atom  27H    basis set group =>   4
Atom  28H    basis set group =>   4
Atom  29H    basis set group =>   4
Atom  30H    basis set group =>   4
Atom  31H    basis set group =>   4
---------------------------------
AUXILIARY/J BASIS SET INFORMATION
---------------------------------
There are 4 groups of distinct atoms

 Group   1 Type O   : 8s3p3d contracted to 6s3p3d pattern {311111/111/111}
 Group   2 Type N   : 8s3p3d contracted to 6s3p3d pattern {311111/111/111}
 Group   3 Type C   : 8s3p3d contracted to 6s3p3d pattern {311111/111/111}
 Group   4 Type H   : 5s2p contracted to 3s1p pattern {311/2}

Atom   0O    basis set group =>   1
Atom   1O    basis set group =>   1
Atom   2O    basis set group =>   1
Atom   3O    basis set group =>   1
Atom   4O    basis set group =>   1
Atom   5N    basis set group =>   2
Atom   6C    basis set group =>   3
Atom   7C    basis set group =>   3
Atom   8C    basis set group =>   3
Atom   9C    basis set group =>   3
Atom  10C    basis set group =>   3
Atom  11C    basis set group =>   3
Atom  12C    basis set group =>   3
Atom  13C    basis set group =>   3
Atom  14C    basis set group =>   3
Atom  15H    basis set group =>   4
Atom  16H    basis set group =>   4
Atom  17H    basis set group =>   4
Atom  18H    basis set group =>   4
Atom  19H    basis set group =>   4
Atom  20H    basis set group =>   4
Atom  21H    basis set group =>   4
Atom  22H    basis set group =>   4
Atom  23H    basis set group =>   4
Atom  24H    basis set group =>   4
Atom  25H    basis set group =>   4
Atom  26H    basis set group =>   4
Atom  27H    basis set group =>   4
Atom  28H    basis set group =>   4
Atom  29H    basis set group =>   4
Atom  30H    basis set group =>   4
Atom  31H    basis set group =>   4


           ************************************************************
           *        Program running with 16 parallel MPI-processes    *
           *              working on a common directory               *
           ************************************************************
------------------------------------------------------------------------------
                             ORCA STARTUP CALCULATIONS
                           -- RI-GTO INTEGRALS CHOSEN --
------------------------------------------------------------------------------
------------------------------------------------------------------------------
                   ___                                                        
                  /   \      - P O W E R E D   B Y -                         
                 /     \                                                     
                 |  |  |   _    _      __       _____    __    __             
                 |  |  |  | |  | |    /  \     |  _  \  |  |  /  |          
                  \  \/   | |  | |   /    \    | | | |  |  | /  /          
                 / \  \   | |__| |  /  /\  \   | |_| |  |  |/  /          
                |  |  |   |  __  | /  /__\  \  |    /   |      \           
                |  |  |   | |  | | |   __   |  |    \   |  |\   \          
                \     /   | |  | | |  |  |  |  | |\  \  |  | \   \       
                 \___/    |_|  |_| |__|  |__|  |_| \__\ |__|  \__/        
                                                                              
                      - O R C A' S   B I G   F R I E N D -                    
                                      &                                       
                       - I N T E G R A L  F E E D E R -                       
                                                                              
 v1 FN, 2020, v2 2021, v3 2022-2024                                           
------------------------------------------------------------------------------


----------------------
SHARK INTEGRAL PACKAGE
----------------------

Number of atoms                             ...     32
Number of basis functions                   ...    361
Number of shells                            ...    191
Maximum angular momentum                    ...      2
Integral batch strategy                     ... SHARK/LIBINT Hybrid
RI-J (if used) integral strategy            ... SPLIT-RIJ (Revised 2003 algorithm where possible)
Printlevel                                  ...      1
Contraction scheme used                     ... SEGMENTED contraction
Prescreening option                         ... SCHWARTZ
   Thresh                                   ... 2.500e-11
   Tcut                                     ... 2.500e-12
   Tpresel                                  ... 2.500e-12 
Coulomb Range Separation                    ... NOT USED
Exchange Range Separation                   ... NOT USED
Multipole approximations                    ... NOT USED
Finite Nucleus Model                        ... NOT USED
CABS basis                                  ... NOT available
Auxiliary Coulomb fitting basis             ... AVAILABLE
   # of basis functions in Aux-J            ...    552
   # of shells in Aux-J                     ...    248
   Maximum angular momentum in Aux-J        ...      2
Auxiliary J/K fitting basis                 ... NOT available
Auxiliary Correlation fitting basis         ... NOT available
Auxiliary 'external' fitting basis          ... NOT available

Checking pre-screening integrals            ... done (  0.0 sec) Dimension = 191
Check shell pair data                       ... done (  0.0 sec)
Shell pair information
Shell pair cut-off parameter TPreSel        ...   2.5e-12
Total number of shell pairs                 ...     18336
Shell pairs after pre-screening             ...     15925
Total number of primitive shell pairs       ...     65361
Primitive shell pairs kept                  ...     38140
          la=0 lb=0:   6541 shell pairs
          la=1 lb=0:   5120 shell pairs
          la=1 lb=1:   1004 shell pairs
          la=2 lb=0:   2201 shell pairs
          la=2 lb=1:    862 shell pairs
          la=2 lb=2:    197 shell pairs

Calculating one electron integrals          ... done (  0.0 sec)
Calculating RI/J V-Matrix + Cholesky decomp.... done (  0.0 sec)
Calculating Nuclear repulsion               ... done (  0.0 sec) ENN=   1218.535060044022 Eh

Diagonalization of the overlap matrix:
Smallest eigenvalue                        ... 3.237e-05
Time for diagonalization                   ...    0.011 sec
Threshold for overlap eigenvalues          ... 1.000e-07
Number of eigenvalues below threshold      ... 0
Time for construction of square roots      ...    0.005 sec
Total time needed                          ...    0.017 sec

-------------------
DFT GRID GENERATION
-------------------

General Integration Accuracy     IntAcc      ... 4.959
Radial Grid Type                 RadialGrid  ... OptM3 with GC (2021)
Angular Grid (max. ang.)         AngularGrid ... 6 (Lebedev-590)
Angular grid pruning method      GridPruning ... 4 (adaptive)
Weight generation scheme         WeightScheme... mBecke (2022)
Basis function cutoff            BFCut       ... 1.0000e-11
Integration weight cutoff        WCut        ... 1.0000e-14
Partially contracted basis set               ... off
Rotationally invariant grid construction     ... off
Angular grids for H and He will be reduced by one unit
Diffuse basis detected: some atoms will have their outermost
                        angular grid increased by 1.

Total number of grid points                  ...   358312
Total number of batches                      ...     5616
Average number of points per batch           ...       63
Average number of grid points per atom       ...    11197
Initializing property integral containers    ... done (  0.0 sec)

SHARK setup successfully completed in   2.7 seconds

Maximum memory used throughout the entire STARTUP-calculation: 82.0 MB


           ************************************************************
           *        Program running with 16 parallel MPI-processes    *
           *              working on a common directory               *
           ************************************************************
-------------------------------------------------------------------------------
                                 ORCA GUESS
                   Start orbitals & Density for SCF / CASSCF
-------------------------------------------------------------------------------

------------
SCF SETTINGS
------------
Hamiltonian:
 Density Functional     Method          .... DFT(GTOs)
 Exchange Functional    Exchange        .... B973C
 Correlation Functional Correlation     .... B973C
 Gradients option       PostSCFGGA      .... off
 RI-approximation to the Coulomb term is turned on
   Number of AuxJ basis functions       .... 552


General Settings:
 Integral files         IntName         .... m1_00_Vitamin_B5-QM3_0000-B97-3C-TZ
 Hartree-Fock type      HFTyp           .... RHF
 Total Charge           Charge          ....    0
 Multiplicity           Mult            ....    1
 Number of Electrons    NEL             ....  118
 Basis Dimension        Dim             ....  361
 Nuclear Repulsion      ENuc            ....   1218.5350600440 Eh

Convergence Acceleration:
 AO-DIIS                CNVDIIS         .... on
   Start iteration      DIISMaxIt       ....    12
   Startup error        DIISStart       ....  0.200000
   # of expansion vecs  DIISMaxEq       ....     5
   Bias factor          DIISBfac        ....   1.050
   Max. coefficient     DIISMaxC        ....  10.000
 MO-DIIS                CNVKDIIS        .... off
 Trust-Rad. Augm. Hess. CNVTRAH         .... off
 SOSCF                  CNVSOSCF        .... on
   Start iteration      SOSCFMaxIt      ....   150
   Startup grad/error   SOSCFStart      ....  0.003300
   Hessian update       SOSCFHessUp     .... L-BFGS
 Level Shifting         CNVShift        .... on
   Level shift para.    LevelShift      ....    0.2500
   Turn off err/grad.   ShiftErr        ....    0.0010
 Zerner damping         CNVZerner       .... off
 Static damping         CNVDamp         .... on
   Fraction old density DampFac         ....    0.7000
   Max. Damping (<1)    DampMax         ....    0.9800
   Min. Damping (>=0)   DampMin         ....    0.0000
   Turn off err/grad.   DampErr         ....    0.1000

SCF Procedure:
 Maximum # iterations   MaxIter         ....   800
 SCF integral mode      SCFMode         .... Direct
   Integral package                     .... SHARK and LIBINT hybrid scheme
 Reset frequency        DirectResetFreq ....    20
 Integral Threshold     Thresh          ....  2.500e-11 Eh
 Primitive CutOff       TCut            ....  2.500e-12 Eh

Convergence Tolerance:
 Convergence Check Mode ConvCheckMode   .... Total+1el-Energy
 Convergence forced     ConvForced      .... 0
 Energy Change          TolE            ....  1.000e-08 Eh
 1-El. energy change                    ....  1.000e-05 Eh
 Orbital Gradient       TolG            ....  1.000e-05
 Orbital Rotation angle TolX            ....  1.000e-05
 DIIS Error             TolErr          ....  5.000e-07

--------------------------------
INITIAL GUESS: MINIMAL BASIS EHT
--------------------------------
The minimal basis has 92 functions
EHT matrix was diagonalized
Basis set overlap was calculated now projecting the orbitals
Using GuessMode=FMatrix for the initial guess
C*T matrix was formed
Effective Fockian was calculated
Effective Fockian was diagonalized
Initial density was built
                      ------------------
                      INITIAL GUESS DONE
                      ------------------
             **** ENERGY FILE WAS UPDATED (m1_00_Vitamin_B5-QM3_0000-B97-3C-TZ.en.tmp) ****
Finished Guess after   0.2 sec
Maximum memory used throughout the entire GUESS-calculation: 26.9 MB


           ************************************************************
           *        Program running with 16 parallel MPI-processes    *
           *              working on a common directory               *
           ************************************************************

-------------------------------------------------------------------------------------------
                                      ORCA LEAN-SCF
                              memory conserving SCF solver
-------------------------------------------------------------------------------------------

----------------------------------------D-I-I-S--------------------------------------------
Iteration    Energy (Eh)           Delta-E    RMSDP     MaxDP     DIISErr   Damp  Time(sec)
-------------------------------------------------------------------------------------------
               ***  Starting incremental Fock matrix formation  ***
    1    -780.9467044282175721     0.00e+00  5.91e-03  1.99e-01  4.46e-01  0.700   0.6
    2    -781.9339136935768693    -9.87e-01  4.31e-03  2.35e-01  3.16e-01  0.700   0.6
    3    -782.4094582519835512    -4.76e-01  2.66e-03  6.80e-02  2.26e-01  0.700   0.6
                               ***Turning on AO-DIIS***
    4    -782.7623154323969175    -3.53e-01  1.88e-03  5.87e-02  1.58e-01  0.700   0.6
    5    -783.0112619537117098    -2.49e-01  1.33e-03  4.26e-02  1.08e-01  0.700   0.6
    6    -783.1857780796942734    -1.75e-01  9.39e-04  2.69e-02  7.56e-02  0.700   0.6
    7    -783.3086161428375362    -1.23e-01  2.31e-03  1.13e-01  5.29e-02  0.000   0.6
    8    -783.5924159014373345    -2.84e-01  4.16e-04  3.24e-02  2.86e-02  0.000   0.6
    9    -783.5950828513887245    -2.67e-03  1.45e-04  4.54e-03  1.02e-02  0.000   0.6
   10    -783.5951858200455717    -1.03e-04  5.36e-05  1.73e-03  6.10e-03  0.000   0.6
                              *** Initializing SOSCF ***
---------------------------------------S-O-S-C-F--------------------------------------
Iteration    Energy (Eh)           Delta-E    RMSDP     MaxDP     MaxGrad    Time(sec)
--------------------------------------------------------------------------------------
   11    -783.5953330991615076    -1.47e-04  1.89e-05  5.87e-04  1.13e-03     0.6
               *** Restarting incremental Fock matrix formation ***
   12    -783.5953402152181297    -7.12e-06  1.97e-05  1.16e-03  6.14e-05     0.6
   13    -783.5953390054032752     1.21e-06  1.05e-05  4.38e-04  1.01e-04     0.5
   14    -783.5953406911016828    -1.69e-06  7.83e-06  1.10e-03  1.81e-05     0.5
   15    -783.5953405842897155     1.07e-07  2.87e-06  1.65e-04  4.78e-05     0.5
   16    -783.5953407072545360    -1.23e-07  3.78e-06  5.50e-04  2.97e-06     0.5
   17    -783.5953406992848613     7.97e-09  2.23e-06  3.32e-04  4.32e-06     0.5
                 **** Energy Check signals convergence ****

               *****************************************************
               *                     SUCCESS                       *
               *           SCF CONVERGED AFTER  17 CYCLES          *
               *****************************************************

             **** ENERGY FILE WAS UPDATED (m1_00_Vitamin_B5-QM3_0000-B97-3C-TZ.en.tmp) ****

----------------
TOTAL SCF ENERGY
----------------

Total Energy       :       -783.59534069928486 Eh          -21322.71325 eV

Components:
Nuclear Repulsion  :       1218.53506004402198 Eh           33158.02471 eV
Electronic Energy  :      -2002.13040074330684 Eh          -54480.73795 eV
One Electron Energy:      -3492.06830421618088 Eh          -95024.00949 eV
Two Electron Energy:       1489.93790347287404 Eh           40543.27153 eV

Virial components:
Potential Energy   :      -1564.86093804373922 Eh          -42582.03095 eV
Kinetic Energy     :        781.26559734445448 Eh           21259.31771 eV
Virial Ratio       :          2.00298201195950

DFT components:
N(Alpha)           :       58.999974843197 electrons
N(Beta)            :       58.999974843197 electrons
N(Total)           :      117.999949686395 electrons
E(XC)              :     -104.706993046459 Eh       

---------------
SCF CONVERGENCE
---------------

  Last Energy change         ...   -7.9697e-09  Tolerance :   1.0000e-08
  Last MAX-Density change    ...    3.3236e-04  Tolerance :   1.0000e-07
  Last RMS-Density change    ...    2.2272e-06  Tolerance :   5.0000e-09
  Last DIIS Error            ...    1.1260e-03  Tolerance :   5.0000e-07
  Last Orbital Gradient      ...    4.3181e-06  Tolerance :   1.0000e-05
  Last Orbital Rotation      ...    3.6390e-06  Tolerance :   1.0000e-05


----------------
ORBITAL ENERGIES
----------------

  NO   OCC          E(Eh)            E(eV) 
   0   2.0000     -18.783422      -511.1229 
   1   2.0000     -18.744454      -510.0625 
   2   2.0000     -18.744158      -510.0545 
   3   2.0000     -18.743178      -510.0278 
   4   2.0000     -18.734067      -509.7799 
   5   2.0000     -14.024817      -381.6347 
   6   2.0000     -10.027130      -272.8521 
   7   2.0000      -9.998988      -272.0863 
   8   2.0000      -9.954193      -270.8674 
   9   2.0000      -9.948812      -270.7209 
  10   2.0000      -9.929472      -270.1947 
  11   2.0000      -9.918917      -269.9075 
  12   2.0000      -9.908711      -269.6297 
  13   2.0000      -9.878157      -268.7983 
  14   2.0000      -9.875679      -268.7309 
  15   2.0000      -1.038062       -28.2471 
  16   2.0000      -0.994348       -27.0576 
  17   2.0000      -0.961799       -26.1719 
  18   2.0000      -0.951180       -25.8829 
  19   2.0000      -0.943195       -25.6656 
  20   2.0000      -0.874466       -23.7954 
  21   2.0000      -0.754551       -20.5324 
  22   2.0000      -0.735036       -20.0013 
  23   2.0000      -0.660918       -17.9845 
  24   2.0000      -0.630801       -17.1650 
  25   2.0000      -0.621016       -16.8987 
  26   2.0000      -0.614512       -16.7217 
  27   2.0000      -0.563213       -15.3258 
  28   2.0000      -0.550309       -14.9747 
  29   2.0000      -0.525592       -14.3021 
  30   2.0000      -0.508364       -13.8333 
  31   2.0000      -0.476705       -12.9718 
  32   2.0000      -0.472499       -12.8573 
  33   2.0000      -0.452827       -12.3220 
  34   2.0000      -0.442026       -12.0281 
  35   2.0000      -0.438109       -11.9215 
  36   2.0000      -0.423210       -11.5161 
  37   2.0000      -0.417738       -11.3672 
  38   2.0000      -0.405076       -11.0227 
  39   2.0000      -0.395757       -10.7691 
  40   2.0000      -0.391498       -10.6532 
  41   2.0000      -0.378919       -10.3109 
  42   2.0000      -0.374705       -10.1963 
  43   2.0000      -0.367550       -10.0015 
  44   2.0000      -0.348029        -9.4704 
  45   2.0000      -0.347709        -9.4616 
  46   2.0000      -0.341779        -9.3003 
  47   2.0000      -0.338860        -9.2208 
  48   2.0000      -0.328478        -8.9383 
  49   2.0000      -0.323819        -8.8116 
  50   2.0000      -0.307142        -8.3578 
  51   2.0000      -0.300415        -8.1747 
  52   2.0000      -0.289225        -7.8702 
  53   2.0000      -0.283947        -7.7266 
  54   2.0000      -0.253079        -6.8866 
  55   2.0000      -0.247378        -6.7315 
  56   2.0000      -0.238323        -6.4851 
  57   2.0000      -0.231777        -6.3070 
  58   2.0000      -0.218591        -5.9482 
  59   0.0000      -0.048204        -1.3117 
  60   0.0000      -0.037053        -1.0083 
  61   0.0000       0.019410         0.5282 
  62   0.0000       0.034704         0.9444 
  63   0.0000       0.051273         1.3952 
  64   0.0000       0.057484         1.5642 
  65   0.0000       0.064586         1.7575 
  66   0.0000       0.067191         1.8284 
  67   0.0000       0.071989         1.9589 
  68   0.0000       0.076295         2.0761 
  69   0.0000       0.085508         2.3268 
*Only the first 10 virtual orbitals were printed.

                    ********************************
                    * MULLIKEN POPULATION ANALYSIS *
                    ********************************

-----------------------
MULLIKEN ATOMIC CHARGES
-----------------------
   0 O :   -0.600508
   1 O :   -0.600437
   2 O :   -0.493388
   3 O :   -0.418494
   4 O :   -0.462659
   5 N :   -0.275457
   6 C :    0.245664
   7 C :   -0.083358
   8 C :   -0.293161
   9 C :   -0.530795
  10 C :   -0.516308
  11 C :    0.212047
  12 C :   -0.265814
  13 C :   -0.341550
  14 C :    0.401760
  15 H :    0.200060
  16 H :    0.160703
  17 H :    0.181946
  18 H :    0.165789
  19 H :    0.170057
  20 H :    0.201528
  21 H :    0.178044
  22 H :    0.170513
  23 H :    0.185061
  24 H :    0.354502
  25 H :    0.419526
  26 H :    0.203936
  27 H :    0.205215
  28 H :    0.421120
  29 H :    0.198126
  30 H :    0.182628
  31 H :    0.423704
Sum of atomic charges:    0.0000000

--------------------------------
MULLIKEN REDUCED ORBITAL CHARGES
--------------------------------
  0 O s       :     3.801758  s :     3.801758
      pz      :     1.421316  p :     4.767871
      px      :     1.737452
      py      :     1.609103
      dz2     :     0.015289  d :     0.030880
      dxz     :     0.004542
      dyz     :     0.001061
      dx2y2   :     0.000769
      dxy     :     0.009218

  1 O s       :     3.787481  s :     3.787481
      pz      :     1.614533  p :     4.791829
      px      :     1.293743
      py      :     1.883553
      dz2     :     0.006643  d :     0.021128
      dxz     :    -0.000348
      dyz     :     0.006208
      dx2y2   :     0.002696
      dxy     :     0.005928

  2 O s       :     3.845773  s :     3.845773
      pz      :     1.487635  p :     4.594378
      px      :     1.533955
      py      :     1.572788
      dz2     :     0.011883  d :     0.053237
      dxz     :     0.010277
      dyz     :     0.007124
      dx2y2   :     0.007550
      dxy     :     0.016403

  3 O s       :     3.752774  s :     3.752774
      pz      :     1.693324  p :     4.643377
      px      :     1.653468
      py      :     1.296585
      dz2     :     0.005633  d :     0.022344
      dxz     :     0.004129
      dyz     :    -0.002214
      dx2y2   :     0.006813
      dxy     :     0.007983

  4 O s       :     3.817276  s :     3.817276
      pz      :     1.510277  p :     4.604339
      px      :     1.325936
      py      :     1.768127
      dz2     :     0.014057  d :     0.041044
      dxz     :     0.001032
      dyz     :     0.002400
      dx2y2   :     0.015687
      dxy     :     0.007869

  5 N s       :     3.335764  s :     3.335764
      pz      :     1.602145  p :     3.897179
      px      :     1.150856
      py      :     1.144179
      dz2     :     0.005663  d :     0.042513
      dxz     :     0.004836
      dyz     :     0.005463
      dx2y2   :     0.012330
      dxy     :     0.014220

  6 C s       :     2.797877  s :     2.797877
      pz      :     0.985789  p :     2.900930
      px      :     0.939736
      py      :     0.975406
      dz2     :     0.013597  d :     0.055529
      dxz     :     0.008313
      dyz     :     0.011363
      dx2y2   :     0.013563
      dxy     :     0.008694

  7 C s       :     3.160391  s :     3.160391
      pz      :     1.059658  p :     2.848970
      px      :     0.873361
      py      :     0.915951
      dz2     :     0.018931  d :     0.073997
      dxz     :     0.007179
      dyz     :     0.010298
      dx2y2   :     0.022751
      dxy     :     0.014838

  8 C s       :     3.271355  s :     3.271355
      pz      :     1.052528  p :     2.955722
      px      :     0.746888
      py      :     1.156306
      dz2     :     0.011503  d :     0.066085
      dxz     :     0.013766
      dyz     :     0.009571
      dx2y2   :     0.013421
      dxy     :     0.017825

  9 C s       :     3.248228  s :     3.248228
      pz      :     1.062575  p :     3.244863
      px      :     1.133039
      py      :     1.049248
      dz2     :     0.010851  d :     0.037704
      dxz     :     0.004379
      dyz     :     0.006062
      dx2y2   :     0.012606
      dxy     :     0.003807

 10 C s       :     3.251812  s :     3.251812
      pz      :     1.141063  p :     3.226797
      px      :     0.951385
      py      :     1.134349
      dz2     :     0.008457  d :     0.037699
      dxz     :     0.007493
      dyz     :     0.005342
      dx2y2   :     0.009162
      dxy     :     0.007246

 11 C s       :     3.187120  s :     3.187120
      pz      :     0.754811  p :     2.490243
      px      :     0.922036
      py      :     0.813396
      dz2     :     0.005096  d :     0.110590
      dxz     :     0.011369
      dyz     :     0.021125
      dx2y2   :     0.048760
      dxy     :     0.024240

 12 C s       :     3.209341  s :     3.209341
      pz      :     0.942962  p :     3.000326
      px      :     0.922006
      py      :     1.135357
      dz2     :     0.014267  d :     0.056147
      dxz     :     0.011251
      dyz     :     0.009710
      dx2y2   :     0.006750
      dxy     :     0.014169

 13 C s       :     3.166734  s :     3.166734
      pz      :     0.993900  p :     3.132232
      px      :     1.138846
      py      :     0.999486
      dz2     :     0.009281  d :     0.042584
      dxz     :     0.008491
      dyz     :     0.007109
      dx2y2   :     0.005892
      dxy     :     0.011812

 14 C s       :     3.115555  s :     3.115555
      pz      :     0.792821  p :     2.356355
      px      :     0.753465
      py      :     0.810068
      dz2     :     0.008218  d :     0.126330
      dxz     :     0.028171
      dyz     :     0.010469
      dx2y2   :     0.030023
      dxy     :     0.049448

 15 H s       :     0.799940  s :     0.799940

 16 H s       :     0.839297  s :     0.839297

 17 H s       :     0.818054  s :     0.818054

 18 H s       :     0.834211  s :     0.834211

 19 H s       :     0.829943  s :     0.829943

 20 H s       :     0.798472  s :     0.798472

 21 H s       :     0.821956  s :     0.821956

 22 H s       :     0.829487  s :     0.829487

 23 H s       :     0.814939  s :     0.814939

 24 H s       :     0.645498  s :     0.645498

 25 H s       :     0.580474  s :     0.580474

 26 H s       :     0.796064  s :     0.796064

 27 H s       :     0.794785  s :     0.794785

 28 H s       :     0.578880  s :     0.578880

 29 H s       :     0.801874  s :     0.801874

 30 H s       :     0.817372  s :     0.817372

 31 H s       :     0.576296  s :     0.576296



                     *******************************
                     * LOEWDIN POPULATION ANALYSIS *
                     *******************************

----------------------
LOEWDIN ATOMIC CHARGES
----------------------
   0 O :   -0.780804
   1 O :   -0.767057
   2 O :   -0.591467
   3 O :   -0.504759
   4 O :   -0.504317
   5 N :   -0.172131
   6 C :   -0.098326
   7 C :    0.110524
   8 C :    0.032091
   9 C :   -0.388747
  10 C :   -0.385970
  11 C :    0.284791
  12 C :   -0.159508
  13 C :   -0.224461
  14 C :    0.357637
  15 H :    0.205253
  16 H :    0.175772
  17 H :    0.195386
  18 H :    0.158083
  19 H :    0.162339
  20 H :    0.189642
  21 H :    0.156567
  22 H :    0.161739
  23 H :    0.175204
  24 H :    0.317405
  25 H :    0.379259
  26 H :    0.198297
  27 H :    0.160891
  28 H :    0.386720
  29 H :    0.178517
  30 H :    0.187649
  31 H :    0.403781

-------------------------------
LOEWDIN REDUCED ORBITAL CHARGES
-------------------------------
  0 O s       :     3.521903  s :     3.521903
      pz      :     1.466459  p :     4.837037
      px      :     1.723897
      py      :     1.646681
      dz2     :     0.104163  d :     0.421864
      dxz     :     0.066138
      dyz     :     0.067428
      dx2y2   :     0.086664
      dxy     :     0.097471

  1 O s       :     3.517693  s :     3.517693
      pz      :     1.601380  p :     4.833538
      px      :     1.390459
      py      :     1.841698
      dz2     :     0.065327  d :     0.415826
      dxz     :     0.108095
      dyz     :     0.048795
      dx2y2   :     0.081215
      dxy     :     0.112393

  2 O s       :     3.520633  s :     3.520633
      pz      :     1.464159  p :     4.702176
      px      :     1.623792
      py      :     1.614226
      dz2     :     0.056986  d :     0.368658
      dxz     :     0.041967
      dyz     :     0.067980
      dx2y2   :     0.099359
      dxy     :     0.102366

  3 O s       :     3.490716  s :     3.490716
      pz      :     1.666285  p :     4.692114
      px      :     1.654377
      py      :     1.371452
      dz2     :     0.054138  d :     0.321928
      dxz     :     0.039769
      dyz     :     0.052338
      dx2y2   :     0.084523
      dxy     :     0.091160

  4 O s       :     3.508078  s :     3.508078
      pz      :     1.475904  p :     4.660687
      px      :     1.468668
      py      :     1.716115
      dz2     :     0.060308  d :     0.335552
      dxz     :     0.082478
      dyz     :     0.020574
      dx2y2   :     0.079180
      dxy     :     0.093011

  5 N s       :     3.116762  s :     3.116762
      pz      :     1.515894  p :     3.976884
      px      :     1.239328
      py      :     1.221662
      dz2     :     0.009025  d :     0.078485
      dxz     :     0.008974
      dyz     :     0.008915
      dx2y2   :     0.024267
      dxy     :     0.027304

  6 C s       :     2.842426  s :     2.842426
      pz      :     1.060467  p :     3.145272
      px      :     1.054458
      py      :     1.030346
      dz2     :     0.027337  d :     0.110629
      dxz     :     0.015682
      dyz     :     0.023259
      dx2y2   :     0.027722
      dxy     :     0.016628

  7 C s       :     2.810619  s :     2.810619
      pz      :     1.015908  p :     2.929366
      px      :     0.947186
      py      :     0.966272
      dz2     :     0.036109  d :     0.149491
      dxz     :     0.013566
      dyz     :     0.021146
      dx2y2   :     0.047508
      dxy     :     0.031162

  8 C s       :     2.852454  s :     2.852454
      pz      :     1.041073  p :     2.984058
      px      :     0.861306
      py      :     1.081679
      dz2     :     0.023963  d :     0.131396
      dxz     :     0.028770
      dyz     :     0.014652
      dx2y2   :     0.029137
      dxy     :     0.034874

  9 C s       :     2.971927  s :     2.971927
      pz      :     1.111610  p :     3.354535
      px      :     1.145701
      py      :     1.097224
      dz2     :     0.017203  d :     0.062284
      dxz     :     0.007524
      dyz     :     0.010765
      dx2y2   :     0.019962
      dxy     :     0.006831

 10 C s       :     2.975114  s :     2.975114
      pz      :     1.149985  p :     3.348899
      px      :     1.059408
      py      :     1.139506
      dz2     :     0.013449  d :     0.061957
      dxz     :     0.012564
      dyz     :     0.007625
      dx2y2   :     0.016447
      dxy     :     0.011873

 11 C s       :     2.767058  s :     2.767058
      pz      :     0.751328  p :     2.704826
      px      :     1.005127
      py      :     0.948372
      dz2     :     0.015464  d :     0.243324
      dxz     :     0.020122
      dyz     :     0.040743
      dx2y2   :     0.109742
      dxy     :     0.057254

 12 C s       :     2.907599  s :     2.907599
      pz      :     1.019061  p :     3.146084
      px      :     1.014378
      py      :     1.112646
      dz2     :     0.028392  d :     0.105825
      dxz     :     0.022329
      dyz     :     0.017017
      dx2y2   :     0.012874
      dxy     :     0.025213

 13 C s       :     2.926666  s :     2.926666
      pz      :     1.058321  p :     3.223472
      px      :     1.104690
      py      :     1.060461
      dz2     :     0.017879  d :     0.074323
      dxz     :     0.014039
      dyz     :     0.012734
      dx2y2   :     0.009651
      dxy     :     0.020020

 14 C s       :     2.739201  s :     2.739201
      pz      :     0.734651  p :     2.623015
      px      :     0.973863
      py      :     0.914501
      dz2     :     0.021399  d :     0.280147
      dxz     :     0.055478
      dyz     :     0.020660
      dx2y2   :     0.071082
      dxy     :     0.111529

 15 H s       :     0.794747  s :     0.794747

 16 H s       :     0.824228  s :     0.824228

 17 H s       :     0.804614  s :     0.804614

 18 H s       :     0.841917  s :     0.841917

 19 H s       :     0.837661  s :     0.837661

 20 H s       :     0.810358  s :     0.810358

 21 H s       :     0.843433  s :     0.843433

 22 H s       :     0.838261  s :     0.838261

 23 H s       :     0.824796  s :     0.824796

 24 H s       :     0.682595  s :     0.682595

 25 H s       :     0.620741  s :     0.620741

 26 H s       :     0.801703  s :     0.801703

 27 H s       :     0.839109  s :     0.839109

 28 H s       :     0.613280  s :     0.613280

 29 H s       :     0.821483  s :     0.821483

 30 H s       :     0.812351  s :     0.812351

 31 H s       :     0.596219  s :     0.596219



                      *****************************
                      * MAYER POPULATION ANALYSIS *
                      *****************************

  NA   - Mulliken gross atomic population
  ZA   - Total nuclear charge
  QA   - Mulliken gross atomic charge
  VA   - Mayer's total valence
  BVA  - Mayer's bonded valence
  FA   - Mayer's free valence

  ATOM       NA         ZA         QA         VA         BVA        FA
  0 O      8.6005     8.0000    -0.6005     1.7585     1.7585    -0.0000
  1 O      8.6004     8.0000    -0.6004     1.6854     1.6854    -0.0000
  2 O      8.4934     8.0000    -0.4934     2.0732     2.0732    -0.0000
  3 O      8.4185     8.0000    -0.4185     1.8551     1.8551     0.0000
  4 O      8.4627     8.0000    -0.4627     1.9747     1.9747     0.0000
  5 N      7.2755     7.0000    -0.2755     2.9058     2.9058     0.0000
  6 C      5.7543     6.0000     0.2457     3.5247     3.5247     0.0000
  7 C      6.0834     6.0000    -0.0834     3.3099     3.3099    -0.0000
  8 C      6.2932     6.0000    -0.2932     3.6247     3.6247     0.0000
  9 C      6.5308     6.0000    -0.5308     3.6271     3.6271     0.0000
 10 C      6.5163     6.0000    -0.5163     3.7363     3.7363    -0.0000
 11 C      5.7880     6.0000     0.2120     3.9842     3.9842    -0.0000
 12 C      6.2658     6.0000    -0.2658     3.7307     3.7307     0.0000
 13 C      6.3416     6.0000    -0.3416     3.7033     3.7033     0.0000
 14 C      5.5982     6.0000     0.4018     3.8047     3.8047     0.0000
 15 H      0.7999     1.0000     0.2001     0.9335     0.9335    -0.0000
 16 H      0.8393     1.0000     0.1607     0.9431     0.9431    -0.0000
 17 H      0.8181     1.0000     0.1819     0.9748     0.9748     0.0000
 18 H      0.8342     1.0000     0.1658     0.9536     0.9536    -0.0000
 19 H      0.8299     1.0000     0.1701     0.9540     0.9540     0.0000
 20 H      0.7985     1.0000     0.2015     0.9750     0.9750     0.0000
 21 H      0.8220     1.0000     0.1780     0.9459     0.9459    -0.0000
 22 H      0.8295     1.0000     0.1705     0.9543     0.9543     0.0000
 23 H      0.8149     1.0000     0.1851     0.9637     0.9637    -0.0000
 24 H      0.6455     1.0000     0.3545     0.8703     0.8703     0.0000
 25 H      0.5805     1.0000     0.4195     0.8442     0.8442     0.0000
 26 H      0.7961     1.0000     0.2039     0.9706     0.9706    -0.0000
 27 H      0.7948     1.0000     0.2052     0.9322     0.9322    -0.0000
 28 H      0.5789     1.0000     0.4211     0.8452     0.8452     0.0000
 29 H      0.8019     1.0000     0.1981     0.9478     0.9478     0.0000
 30 H      0.8174     1.0000     0.1826     0.9585     0.9585     0.0000
 31 H      0.5763     1.0000     0.4237     0.8364     0.8364    -0.0000

  Mayer bond orders larger than 0.100000
B(  0-O ,  6-C ) :  -0.1086 B(  0-O ,  7-C ) :   1.0784 B(  0-O , 25-H ) :   0.6904 
B(  1-O ,  8-C ) :   0.8852 B(  1-O , 28-H ) :   0.6686 B(  1-O , 31-H ) :   0.2128 
B(  2-O ,  7-C ) :  -0.1134 B(  2-O , 11-C ) :   1.9072 B(  2-O , 28-H ) :   0.1346 
B(  3-O , 14-C ) :   1.2431 B(  3-O , 31-H ) :   0.6107 B(  4-O , 14-C ) :   1.7840 
B(  4-O , 25-H ) :   0.1199 B(  5-N , 11-C ) :   1.2758 B(  5-N , 12-C ) :   0.8860 
B(  5-N , 24-H ) :   0.7971 B(  6-C ,  7-C ) :   0.7772 B(  6-C ,  8-C ) :   0.9157 
B(  6-C ,  9-C ) :   0.9202 B(  6-C , 10-C ) :   1.0075 B(  7-C , 11-C ) :   0.7649 
B(  7-C , 15-H ) :   0.9368 B(  8-C , 16-H ) :   0.9502 B(  8-C , 17-H ) :   0.9280 
B(  9-C , 18-H ) :   0.9503 B(  9-C , 19-H ) :   0.9411 B(  9-C , 20-H ) :   0.9555 
B( 10-C , 21-H ) :   0.9539 B( 10-C , 22-H ) :   0.9473 B( 10-C , 23-H ) :   0.9519 
B( 12-C , 13-C ) :   0.9459 B( 12-C , 26-H ) :   0.9305 B( 12-C , 27-H ) :   0.9343 
B( 13-C , 14-C ) :   0.9088 B( 13-C , 29-H ) :   0.9714 B( 13-C , 30-H ) :   0.9337 



------------------
HIRSHFELD ANALYSIS
------------------

Total integrated alpha density =     58.999974843
Total integrated beta density  =     58.999974843

  ATOM     CHARGE      SPIN    
   0 O   -0.225236    0.000000
   1 O   -0.203911    0.000000
   2 O   -0.243080    0.000000
   3 O   -0.172383    0.000000
   4 O   -0.246563    0.000000
   5 N   -0.109998    0.000000
   6 C    0.011767    0.000000
   7 C    0.056547    0.000000
   8 C    0.026194    0.000000
   9 C   -0.085741    0.000000
  10 C   -0.078416    0.000000
  11 C    0.172961    0.000000
  12 C    0.021245    0.000000
  13 C   -0.045510    0.000000
  14 C    0.217963    0.000000
  15 H    0.040447    0.000000
  16 H    0.026451    0.000000
  17 H    0.017170    0.000000
  18 H    0.026181    0.000000
  19 H    0.028764    0.000000
  20 H    0.023560    0.000000
  21 H    0.026935    0.000000
  22 H    0.029130    0.000000
  23 H    0.026572    0.000000
  24 H    0.118030    0.000000
  25 H    0.117712    0.000000
  26 H    0.043618    0.000000
  27 H    0.042475    0.000000
  28 H    0.116680    0.000000
  29 H    0.039713    0.000000
  30 H    0.048323    0.000000
  31 H    0.132450    0.000000

  TOTAL   0.000050    0.000000

-------
TIMINGS
-------

Total SCF time: 0 days 0 hours 0 min 10 sec 

Total time                  ....      10.674 sec
Sum of individual times     ....      10.550 sec  ( 98.8%)

SCF preparation             ....       0.212 sec  (  2.0%)
Fock matrix formation       ....       8.813 sec  ( 82.6%)
  Startup                   ....       0.019 sec  (  0.2% of F)
  Split-RI-J                ....       1.396 sec  ( 15.8% of F)
  XC integration            ....       7.088 sec  ( 80.4% of F)
    XC Preparation          ....       0.000 sec  (  0.0% of XC)
    Basis function eval.    ....       1.569 sec  ( 22.1% of XC)
    Density eval.           ....       1.780 sec  ( 25.1% of XC)
    XC-Functional eval.     ....       0.134 sec  (  1.9% of XC)
    XC-Potential eval.      ....       1.490 sec  ( 21.0% of XC)
Diagonalization             ....       0.000 sec  (  0.0%)
Density matrix formation    ....       0.072 sec  (  0.7%)
Total Energy calculation    ....       0.033 sec  (  0.3%)
Population analysis         ....       0.784 sec  (  7.3%)
Orbital Transformation      ....       0.054 sec  (  0.5%)
Orbital Orthonormalization  ....       0.000 sec  (  0.0%)
DIIS solution               ....       0.436 sec  (  4.1%)
SOSCF solution              ....       0.146 sec  (  1.4%)
Finished LeanSCF after  10.7 sec

Maximum memory used throughout the entire LEANSCF-calculation: 67.3 MB


           ************************************************************
           *        Program running with 16 parallel MPI-processes    *
           *              working on a common directory               *
           ************************************************************

------------------------------------------------------------------------------
                         ORCA PROPERTY INTEGRAL CALCULATIONS
------------------------------------------------------------------------------

GBWName                                   ... m1_00_Vitamin_B5-QM3_0000-B97-3C-TZ.gbw
Number of atoms                           ...     32
Number of basis functions                 ...    361
Max core memory                           ...   6000 MB

Dipole integrals                          ... YES
Quadrupole integrals                      ...  NO
Linear momentum integrals                 ...  NO
Angular momentum integrals                ...  NO
Higher moments length integrals           ...  NO
Higher moments velocity integrals         ...  NO
Kinetic energy integrals                  ...  NO
GIAO right hand sides                     ...  NO
GIAO dipole derivative integrals          ...  NO
SOC integrals                             ...  NO
EPR diamagnetic integrals (GIAO)          ...  NO
EPR gauge integrals                       ...  NO
Field gradient integrals                  ...  NO (   0 nuclei)
Spin-dipole/Fermi contact integrals       ...  NO (   0 nuclei)
Contact density integrals                 ...  NO (   0 nuclei)
Nucleus-orbit integrals                   ...  NO (   0 nuclei)
Geometric perturbations                   ...  NO (  32 nuclei)

Choice of electric origin   ... Center of mass
Position of electric origin ... ( -0.3923, -0.3326,  0.3153) 
Choice of magnetic origin   ... GIAO
Position of magnetic origin ... (  0.0000,  0.0000,  0.0000) 

Calculating integrals                     ... Electric Dipole (Length)     done (  0.0 sec)

Property integrals calculated in   0.0 sec

Maximum memory used throughout the entire PROPINT-calculation: 26.2 MB


-------------------------------------------------------------------------------
                          DFT DISPERSION CORRECTION                            
                                                                               
                              DFTD3 V3.1  Rev 1                                
                          USING Becke-Johnson damping                          
-------------------------------------------------------------------------------
The B97-3c composite method is recognized
Using three-body term ABC
[...]
 25:    437.36   0.001504    7.60  0.001073  (-0.024615 -0.017067  0.013263)
 26:    488.61   0.000901    4.56  0.000576  ( 0.006865  0.018015 -0.014282)
 27:    519.09   0.001966    9.94  0.001182  ( 0.013100  0.030557  0.008749)
 28:    534.07   0.002925   14.78  0.001709  ( 0.014794  0.038471  0.003197)
 29:    575.65   0.020455  103.37  0.011089  (-0.055825 -0.070000 -0.055431)
 30:    590.10   0.006237   31.52  0.003298  (-0.008363 -0.046609  0.032494)
 31:    610.48   0.005501   27.80  0.002812  ( 0.031930 -0.040118  0.013537)
 32:    641.62   0.043256  218.60  0.021038  ( 0.047353  0.133185 -0.032522)
 33:    720.44   0.000670    3.39  0.000290  ( 0.014012  0.001356  0.009605)
 34:    755.28   0.003916   19.79  0.001618  ( 0.021447  0.034028 -0.000198)
 35:    790.05   0.014549   73.52  0.005747  (-0.039779  0.015134  0.062733)
 36:    821.09   0.004747   23.99  0.001804  ( 0.018781 -0.009836 -0.036806)
 37:    833.31   0.001326    6.70  0.000497  ( 0.009165  0.019904  0.004068)
 38:    874.99   0.004379   22.13  0.001562  ( 0.031248  0.016340 -0.017841)
 39:    885.80   0.012570   63.52  0.004428  (-0.040757  0.003052  0.052514)
 40:    907.43   0.005638   28.49  0.001939  (-0.021441 -0.002716  0.038364)
 41:    927.79   0.015759   79.64  0.005301  (-0.029589 -0.001434  0.066506)
 42:    940.69   0.003440   17.39  0.001141  (-0.005571 -0.012223 -0.030998)
 43:    955.18   0.000496    2.51  0.000162  (-0.012483 -0.001736 -0.001829)
 44:    967.31   0.000421    2.13  0.000136  ( 0.003042  0.009214  0.006461)
 45:   1003.40   0.000640    3.24  0.000199  (-0.003010 -0.009652 -0.009848)
 46:   1033.83   0.002962   14.97  0.000894  ( 0.012569 -0.023063  0.014290)
 47:   1047.23   0.010378   52.44  0.003092  ( 0.052181  0.017560  0.007820)
 48:   1066.92   0.004908   24.80  0.001435  ( 0.004739 -0.036623 -0.008472)
 49:   1074.13   0.002327   11.76  0.000676  (-0.015391 -0.011617  0.017445)
 50:   1082.53   0.014039   70.95  0.004047  (-0.026267  0.056538 -0.012669)
 51:   1180.08   0.001737    8.78  0.000459  ( 0.010482 -0.015507  0.010443)
 52:   1186.47   0.002249   11.37  0.000592  (-0.023700  0.005255  0.001518)
 53:   1201.31   0.003966   20.04  0.001030  (-0.027314 -0.015274  0.007129)
 54:   1230.32   0.001095    5.53  0.000278  ( 0.008572 -0.002889 -0.013994)
 55:   1240.10   0.009718   49.11  0.002446  ( 0.031547  0.024423 -0.029221)
 56:   1252.10   0.001918    9.69  0.000478  (-0.001497 -0.010067 -0.019353)
 57:   1284.47   0.006115   30.90  0.001486  (-0.018753  0.032807  0.007600)
 58:   1298.15   0.020207  102.12  0.004858  (-0.003515 -0.064562 -0.026019)
 59:   1316.47   0.000338    1.71  0.000080  ( 0.008709 -0.002028 -0.000372)
 60:   1335.12   0.000266    1.34  0.000062  (-0.007474  0.001148  0.002235)
 61:   1341.42   0.004596   23.23  0.001069  (-0.006424 -0.029934 -0.011484)
 62:   1356.46   0.003273   16.54  0.000753  (-0.012826  0.012197  0.020969)
 63:   1375.40   0.002997   15.15  0.000680  (-0.013045  0.021500  0.006896)
 64:   1400.62   0.001365    6.90  0.000304  ( 0.013552 -0.008658  0.006751)
 65:   1422.43   0.002637   13.33  0.000578  ( 0.009019  0.021520 -0.005833)
 66:   1441.75   0.008610   43.51  0.001864  (-0.031160  0.029459 -0.004994)
 67:   1456.25   0.001061    5.36  0.000227  ( 0.003599 -0.012676 -0.007334)
 68:   1470.61   0.004590   23.19  0.000974  (-0.025463  0.002016  0.017930)
 69:   1481.64   0.005470   27.64  0.001152  (-0.002646  0.033072 -0.007157)
 70:   1487.86   0.000879    4.44  0.000184  (-0.010365  0.008660 -0.001422)
 71:   1496.28   0.001448    7.32  0.000302  ( 0.015568  0.000066  0.007723)
 72:   1499.17   0.000859    4.34  0.000179  (-0.006924  0.011431  0.000363)
 73:   1510.10   0.002647   13.38  0.000547  ( 0.010257 -0.009697 -0.018648)
 74:   1517.81   0.001202    6.07  0.000247  ( 0.012009 -0.010118  0.000697)
 75:   1530.17   0.004373   22.10  0.000892  ( 0.011668  0.023340  0.014524)
 76:   1541.56   0.037656  190.30  0.007623  (-0.040698 -0.075643  0.015645)
 77:   1690.14   0.029487  149.01  0.005444  (-0.015505  0.071817 -0.006797)
 78:   1723.84   0.059591  301.15  0.010788  (-0.101464  0.022017  0.002815)
 79:   2985.88   0.015020   75.90  0.001570  (-0.025145 -0.022525 -0.020739)
 80:   2989.35   0.002044   10.33  0.000213  ( 0.008870  0.006815 -0.009393)
 81:   3001.87   0.004540   22.94  0.000472  ( 0.005157 -0.015003  0.014840)
 82:   3009.67   0.014097   71.24  0.001462  ( 0.027526  0.023103 -0.013046)
 83:   3023.58   0.002528   12.78  0.000261  (-0.005174  0.014180 -0.005756)
 84:   3032.84   0.003336   16.86  0.000343  (-0.010749 -0.007651 -0.013006)
 85:   3040.61   0.010537   53.25  0.001081  (-0.017149 -0.028059  0.000115)
 86:   3061.39   0.002904   14.67  0.000296  ( 0.001255 -0.009967 -0.013967)
 87:   3073.84   0.008624   43.58  0.000876  (-0.000278  0.017913  0.023550)
 88:   3091.00   0.002668   13.48  0.000269  (-0.005543  0.015300 -0.002138)
 89:   3098.91   0.003602   18.20  0.000363  (-0.007224  0.011689 -0.013186)
 90:   3111.73   0.105648  533.90  0.010595  ( 0.036089  0.091462 -0.030453)
 91:   3116.77   0.030083  152.03  0.003012  (-0.030281 -0.041799  0.018654)
 92:   3124.65   0.001782    9.01  0.000178  (-0.009772  0.008614 -0.002883)
 93:   3480.58   0.059269  299.52  0.005314  ( 0.030423  0.049187  0.044373)
 94:   3502.68   0.010628   53.71  0.000947  ( 0.029345 -0.001915  0.009061)
 95:   3586.14   0.034598  174.85  0.003011  ( 0.023137  0.019876 -0.045611)

* The epsilon (eps) is given for a Dirac delta lineshape.
** The dipole moment derivative (T) already includes vibrational overlap.

The first frequency considered to be a vibration is 6
The total number of vibrations considered is 90


--------------------------
THERMOCHEMISTRY AT 298.15K
--------------------------

Temperature         ...   298.15 K
Pressure            ...     1.00 atm
Total Mass          ...   219.24 AMU
Quasi RRHO          ...     True
Cut-Off Frequency   ...     1.00 cm^-1

Throughout the following assumptions are being made:
  (1) The electronic state is orbitally nondegenerate
  (2) There are no thermally accessible electronically excited states
  (3) Hindered rotations indicated by low frequency modes are not
      treated as such but are treated as vibrations and this may
      cause some error
  (4) All equations used are the standard statistical mechanics
      equations for an ideal gas
  (5) All vibrations are strictly harmonic

freq.      81.19  E(vib)   ...       0.48 
freq.      93.94  E(vib)   ...       0.47 
freq.     112.45  E(vib)   ...       0.45 
freq.     125.93  E(vib)   ...       0.43 
freq.     134.69  E(vib)   ...       0.42 
freq.     155.57  E(vib)   ...       0.40 
freq.     192.63  E(vib)   ...       0.36 
freq.     204.79  E(vib)   ...       0.35 
freq.     214.27  E(vib)   ...       0.34 
freq.     227.81  E(vib)   ...       0.33 
freq.     243.85  E(vib)   ...       0.31 
freq.     259.75  E(vib)   ...       0.30 
freq.     285.01  E(vib)   ...       0.28 
freq.     311.34  E(vib)   ...       0.25 
freq.     316.18  E(vib)   ...       0.25 
freq.     344.26  E(vib)   ...       0.23 
freq.     376.64  E(vib)   ...       0.21 
freq.     389.40  E(vib)   ...       0.20 
freq.     424.98  E(vib)   ...       0.18 
freq.     437.36  E(vib)   ...       0.17 
freq.     488.61  E(vib)   ...       0.15 
freq.     519.09  E(vib)   ...       0.13 
freq.     534.07  E(vib)   ...       0.13 
freq.     575.65  E(vib)   ...       0.11 
freq.     590.10  E(vib)   ...       0.10 
freq.     610.48  E(vib)   ...       0.10 
freq.     641.62  E(vib)   ...       0.09 
freq.     720.44  E(vib)   ...       0.07 
freq.     755.28  E(vib)   ...       0.06 
freq.     790.05  E(vib)   ...       0.05 
freq.     821.09  E(vib)   ...       0.05 
freq.     833.31  E(vib)   ...       0.04 
freq.     874.99  E(vib)   ...       0.04 
freq.     885.80  E(vib)   ...       0.04 
freq.     907.43  E(vib)   ...       0.03 
freq.     927.79  E(vib)   ...       0.03 
freq.     940.69  E(vib)   ...       0.03 
freq.     955.18  E(vib)   ...       0.03 
freq.     967.31  E(vib)   ...       0.03 
freq.    1003.40  E(vib)   ...       0.02 
freq.    1033.83  E(vib)   ...       0.02 
freq.    1047.23  E(vib)   ...       0.02 
freq.    1066.92  E(vib)   ...       0.02 
freq.    1074.13  E(vib)   ...       0.02 
freq.    1082.53  E(vib)   ...       0.02 
freq.    1180.08  E(vib)   ...       0.01 
freq.    1186.47  E(vib)   ...       0.01 
freq.    1201.31  E(vib)   ...       0.01 
freq.    1230.32  E(vib)   ...       0.01 
freq.    1240.10  E(vib)   ...       0.01 
freq.    1252.10  E(vib)   ...       0.01 
freq.    1284.47  E(vib)   ...       0.01 
freq.    1298.15  E(vib)   ...       0.01 
freq.    1316.47  E(vib)   ...       0.01 
freq.    1335.12  E(vib)   ...       0.01 
freq.    1341.42  E(vib)   ...       0.01 
freq.    1356.46  E(vib)   ...       0.01 
freq.    1375.40  E(vib)   ...       0.01 
freq.    1400.62  E(vib)   ...       0.00 
freq.    1422.43  E(vib)   ...       0.00 
freq.    1441.75  E(vib)   ...       0.00 
freq.    1456.25  E(vib)   ...       0.00 
freq.    1470.61  E(vib)   ...       0.00 
freq.    1481.64  E(vib)   ...       0.00 
freq.    1487.86  E(vib)   ...       0.00 
freq.    1496.28  E(vib)   ...       0.00 
freq.    1499.17  E(vib)   ...       0.00 
freq.    1510.10  E(vib)   ...       0.00 
freq.    1517.81  E(vib)   ...       0.00 
freq.    1530.17  E(vib)   ...       0.00 
freq.    1541.56  E(vib)   ...       0.00 
freq.    1690.14  E(vib)   ...       0.00 
freq.    1723.84  E(vib)   ...       0.00 
freq.    2985.88  E(vib)   ...       0.00 
freq.    2989.35  E(vib)   ...       0.00 
freq.    3001.87  E(vib)   ...       0.00 
freq.    3009.67  E(vib)   ...       0.00 
freq.    3023.58  E(vib)   ...       0.00 
freq.    3032.84  E(vib)   ...       0.00 
freq.    3040.61  E(vib)   ...       0.00 
freq.    3061.39  E(vib)   ...       0.00 
freq.    3073.84  E(vib)   ...       0.00 
freq.    3091.00  E(vib)   ...       0.00 
freq.    3098.91  E(vib)   ...       0.00 
freq.    3111.73  E(vib)   ...       0.00 
freq.    3116.77  E(vib)   ...       0.00 
freq.    3124.65  E(vib)   ...       0.00 
freq.    3480.58  E(vib)   ...       0.00 
freq.    3502.68  E(vib)   ...       0.00 
freq.    3586.14  E(vib)   ...       0.00 

------------
INNER ENERGY
------------

The inner energy is: U= E(el) + E(ZPE) + E(vib) + E(rot) + E(trans)
    E(el)   - is the total energy from the electronic structure calculation
              = E(kin-el) + E(nuc-el) + E(el-el) + E(nuc-nuc)
    E(ZPE)  - the the zero temperature vibrational energy from the frequency calculation
    E(vib)  - the the finite temperature correction to E(ZPE) due to population
              of excited vibrational states
    E(rot)  - is the rotational thermal energy
    E(trans)- is the translational thermal energy

Summary of contributions to the inner energy U:
Electronic energy                ...   -783.77364740 Eh
Zero point energy                ...      0.26923076 Eh     168.94 kcal/mol
Thermal vibrational correction   ...      0.01266299 Eh       7.95 kcal/mol
Thermal rotational correction    ...      0.00141627 Eh       0.89 kcal/mol
Thermal translational correction ...      0.00141627 Eh       0.89 kcal/mol
-----------------------------------------------------------------------
Total thermal energy                   -783.48892111 Eh


Summary of corrections to the electronic energy:
(perhaps to be used in another calculation)
Total thermal correction                  0.01549554 Eh       9.72 kcal/mol
Non-thermal (ZPE) correction              0.26923076 Eh     168.94 kcal/mol
-----------------------------------------------------------------------
Total correction                          0.28472630 Eh     178.67 kcal/mol


--------
ENTHALPY
--------

The enthalpy is H = U + kB*T
                kB is Boltzmann's constant
Total thermal energy              ...   -783.48892111 Eh 
Thermal Enthalpy correction       ...      0.00094421 Eh       0.59 kcal/mol
-----------------------------------------------------------------------
Total Enthalpy                    ...   -783.48797690 Eh


Note: Only C1 symmetry has been detected, increase convergence thresholds 
      if your molecule has a higher symmetry. Symmetry factor of 1.0 is   
      used for the rotational entropy correction. 
 

Note: Rotational entropy computed according to Herzberg 
Infrared and Raman Spectra, Chapter V,1, Van Nostrand Reinhold, 1945 
Point Group:  C1, Symmetry Number:   1  
Rotational constants in cm-1:     0.032490     0.016022     0.015074 

Vibrational entropy computed according to the QRRHO of S. Grimme
Chem.Eur.J. 2012 18 9955 using a reference frequency of 100.0 cm-1


-------
ENTROPY
-------

The entropy contributions are T*S = T*(S(el)+S(vib)+S(rot)+S(trans))
     S(el)   - electronic entropy
     S(vib)  - vibrational entropy
     S(rot)  - rotational entropy
     S(trans)- translational entropy
The entropies will be listed as multiplied by the temperature to get
units of energy

Electronic entropy                ...      0.00000000 Eh      0.00 kcal/mol
Vibrational entropy               ...      0.02155751 Eh     13.53 kcal/mol
Rotational entropy                ...      0.01506043 Eh      9.45 kcal/mol
Translational entropy             ...      0.01998299 Eh     12.54 kcal/mol
-----------------------------------------------------------------------
Final entropy term                ...      0.05660093 Eh     35.52 kcal/mol

In case the symmetry of your molecule has not been determined correctly
or in case you have a reason to use a different symmetry number we print 
out the resulting rotational entropy values for sn=1,12:

 non-linear molecules -----------------------------------
|  sn= 1 | S(rot)=       0.01506043 Eh      9.45 kcal/mol|
|  sn= 2 | S(rot)=       0.01440597 Eh      9.04 kcal/mol|
|  sn= 3 | S(rot)=       0.01402314 Eh      8.80 kcal/mol|
|  sn= 4 | S(rot)=       0.01375151 Eh      8.63 kcal/mol|
|  sn= 5 | S(rot)=       0.01354082 Eh      8.50 kcal/mol|
|  sn= 6 | S(rot)=       0.01336868 Eh      8.39 kcal/mol|
|  sn= 7 | S(rot)=       0.01322313 Eh      8.30 kcal/mol|
|  sn= 8 | S(rot)=       0.01309706 Eh      8.22 kcal/mol|
|  sn= 9 | S(rot)=       0.01298585 Eh      8.15 kcal/mol|
|  sn=10 | S(rot)=       0.01288637 Eh      8.09 kcal/mol|
|  sn=11 | S(rot)=       0.01279638 Eh      8.03 kcal/mol|
|  sn=12 | S(rot)=       0.01271422 Eh      7.98 kcal/mol|
 linear molecules ---------------------------------------
|  Dinfh | S(rot)=       0.00928645 Eh      5.83 kcal/mol|
|  Cinfv | S(rot)=       0.00994090 Eh      6.24 kcal/mol|
 --------------------------------------------------------


-------------------
GIBBS FREE ENERGY
-------------------

The Gibbs free energy is G = H - T*S

Total enthalpy                    ...   -783.48797690 Eh 
Total entropy correction          ...     -0.05660093 Eh    -35.52 kcal/mol
-----------------------------------------------------------------------
Final Gibbs free energy         ...   -783.54457783 Eh

For completeness - the Gibbs free energy minus the electronic energy
G-E(el)                           ...      0.22906957 Eh    143.74 kcal/mol


Maximum memory used throughout the entire PROP-calculation: 101.2 MB

--------------------------------
SUGGESTED CITATIONS FOR THIS RUN
--------------------------------

Below you find a list of papers that are relevant to this ORCA run
We neither can nor want to force you to cite these papers, but we appreciate if you do
You receive ORCA, which is the product of decades of hard work by many enthusiastic individuals, for free
The only thing we kindly ask in return is that you cite our papers,
We deeply appreciate it, if you show your appreciation for ORCA by not just citing the generic ORCA reference.

Please note that relegating all ORCA citations to the supporting information does *not* help us.
SI sections are not indexed - citations you put there will not count into any citation statistics
But we need these citations in order to attract the funding resources that allow us to do what we are doing

Therefore, if you are a happy ORCA user, please consider citing a few of the papers listed below in the main body of your paper

In addition to the list printed below, the program has created the file m1_00_Vitamin_B5-QM3_0000-B97-3C-TZ.bibtex that contains the list in bibtex format
You can import this file easily into all common literature databanks and citation aid programs


List of essential papers. We consider these as the minimum necessary citations

  1. Neese,F.
     Software update: the ORCA program system, version 5.0
     WIRES Comput. Molec. Sci., 2022 12(1)e1606
     doi.org/10.1002/wcms.1606

List of papers to cite with high priority. The work reported in these papers was absolutely
necessary for this run to complete.
Our perspective: the developers of density functionals and basis sets usually get cited in chemistry papers
Good! But without the algorithms to do something with them, the functionals or basis sets would not do anything.
Hence, in our opinion, the algorithm design and method developments papers are equally worthy of getting cited

  1. Neese,F.
     An improvement of the resolution of the identity approximation for the formation of the Coulomb matrix
     J. Comp. Chem., 2003 24(14)1740-1747
     doi.org/10.1002/jcc.10318
  2. Bykov,D.; Petrenko,T.; Izsak,R.; Kossmann,S.; Becker,U.; Valeev,E.; Neese,F.
     Efficient implementation of the analytic second derivatives of Hartree-Fock and hybrid DFT energies: a detailed analysis of different approximations
     Molec. Phys., 2015 113 1961-1977
     doi.org/10.1080/00268976.2015.1025114
  3. Neese,F.
     The SHARK Integral Generation and Digestion System
     J. Comp. Chem., 2022  1-16
     doi.org/10.1002/jcc.26942
  4. Grimme,S.; Antony,J.; Ehrlich,S.; Krieg,H.
     A consistent and accurate ab initio parametrization of density functional dispersion correction (DFT-D) for the 94 elements H-Pu
     J. Chem. Phys., 2010 132 154104
     doi.org/10.1063/1.3382344
  5. Grimme,S.; Ehrlich,S.; Goerigk,L.
     Effect of the damping function in dispersion corrected density functional theory
     J. Comput. Chem., 2011 32(7)1456-1465
     doi.org/10.1002/jcc.21759

List of suggested additional citations. These are papers that are important in the 'surrounding' of 
of this run, or papers that preceded the highly important papers. If you like your results we are grateful for a citation.

  1. Neese,F.
     The ORCA program system
     WIRES Comput. Molec. Sci., 2012 2(1)73-78
     doi.org/10.1002/wcms.81
  2. Neese,F.
     Software update: the ORCA program system, version 4.0
     WIRES Comput. Molec. Sci., 2018 8(1)1-6
     doi.org/10.1002/wcms.1327
  3. Neese,F.; Wennmohs,F.; Becker,U.; Riplinger,C.
     The ORCA quantum chemistry program package
     J. Chem. Phys., 2020 152 Art. No. L224108
     doi.org/10.1063/5.0004608

List of optional additional citations

  1. Neese,F.
     Approximate second-order SCF convergence for spin unrestricted wavefunctions
     Chem. Phys. Lett., 2000 325(1-3)93-98
     doi.org/10.1016/s0009-2614(00)00662-x

Timings for individual modules:

Sum of individual times          ...      382.836 sec (=   6.381 min)
Startup calculation              ...       42.217 sec (=   0.704 min)  11.0 %
SCF iterations                   ...       91.675 sec (=   1.528 min)  23.9 %
Property integrals               ...       87.264 sec (=   1.454 min)  22.8 %
SCF Response                     ...       70.154 sec (=   1.169 min)  18.3 %
Property calculations            ...       34.139 sec (=   0.569 min)   8.9 %
SCF Gradient evaluation          ...       57.292 sec (=   0.955 min)  15.0 %
Geometry relaxation              ...        0.095 sec (=   0.002 min)   0.0 %
                             ****ORCA TERMINATED NORMALLY****
TOTAL RUN TIME: 0 days 0 hours 6 minutes 25 seconds 725 msec
