14
 energy: -26.431249190883 gnorm: 0.000028876362 xtb: 6.7.0 (08769fc)
O           -2.38190089254992       -1.14469335949803       -0.19660430821071
O           -2.38769531999519        1.02970041243410        0.22130697622633
N            1.81079241501650       -1.14736333519076        0.26971734333527
C           -0.26826523472274        0.00086508917928        0.01812418668388
C            0.41496471112693        1.19131744553651       -0.23281892557753
C            0.49158069902195       -1.13816912208402        0.28230878969216
C            1.79715017459664        1.18219447912940       -0.24337246569425
C            2.44734015275415       -0.02055936169858        0.00225386576108
C           -1.76097554157102        0.02533772903222        0.02966890368350
H           -0.15353470565830        2.09072231114600       -0.41723398236588
H            0.03716251712883       -2.08809441914816        0.54417593473363
H            2.35887680383829        2.08193012954273       -0.43795427193855
H            3.52686337204025       -0.08861594197872       -0.00716468645203
H           -1.76964950165539       -1.87056979990478       -0.37536107203317
