
                                 *****************
                                 * O   R   C   A *
                                 *****************

                                            #,                                       
                                            ###                                      
                                            ####                                     
                                            #####                                    
                                            ######                                   
                                           ########,                                 
                                     ,,################,,,,,                         
                               ,,#################################,,                 
                          ,,##########################################,,             
                       ,#########################################, ''#####,          
                    ,#############################################,,   '####,        
                  ,##################################################,,,,####,       
                ,###########''''           ''''###############################       
              ,#####''   ,,,,##########,,,,          '''####'''          '####       
            ,##' ,,,,###########################,,,                        '##       
           ' ,,###''''                  '''############,,,                           
         ,,##''                                '''############,,,,        ,,,,,,###''
      ,#''                                            '''#######################'''  
     '                                                          ''''####''''         
             ,#######,   #######,   ,#######,      ##                                
            ,#'     '#,  ##    ##  ,#'     '#,    #''#        ,####,   ,####,        
            ##       ##  ##   ,#'  ##            #'  '#       #'       #'  '#        
            ##       ##  #######   ##           ,######,      #####,   #    #        
            '#,     ,#'  ##    ##  '#,     ,#' ,#      #,     #,   #   #,  ,#        
             '#######'   ##     ##  '#######'  #'      '#     '####' # '####'        



                #########################################################
                #                        -***-                          #
                #          Department of theory and spectroscopy        #
                #                                                       #
                #                      Frank Neese                      #
                #                                                       #
                #     Directorship, Architecture, Infrastructure        #
                #                    SHARK, DRIVERS                     #
                #        Core code/Algorithms in most modules           #
                #                                                       #
                #        Max Planck Institute fuer Kohlenforschung      #
                #                Kaiser Wilhelm Platz 1                 #
                #                 D-45470 Muelheim/Ruhr                 #
                #                      Germany                          #
                #                                                       #
                #                  All rights reserved                  #
                #                        -***-                          #
                #########################################################


                         Program Version 6.0.1  -  RELEASE   -


 With contributions from (in alphabetic order):
[Max-Planck-Institut fuer Kohlenforschung]                               
  Daniel Aravena         : Magnetic Suceptibility                        
  Michael Atanasov       : Ab Initio Ligand Field Theory (pilot matlab implementation)
  Alexander A. Auer      : GIAO ZORA, VPT2 properties, NMR spectrum      
  Ute Becker             : All parallelization in ORCA, NUMFREQ, NUMCALC 
  Giovanni Bistoni       : ED, misc. LED, open-shell LED, HFLD           
  Martin Brehm           : Molecular dynamics                            
  Dmytro Bykov           : pre 5.0 version of the SCF Hessian            
  Marcos Casanova-Páez   : Triplet and SCS-CIS(D). UHF-(DLPNO)-IP/EA/STEOM-CCSD. UHF-CVS-IP/STEOM-CCSD   
  Vijay G. Chilkuri      : MRCI spin determinant printing, contributions to CSF-ICE 
  Pauline Colinet        : FMM embedding                                 
  Dipayan Datta          : RHF DLPNO-CCSD density                        
  Achintya Kumar Dutta   : EOM-CC, STEOM-CC                              
  Nicolas Foglia         : Exact transition moments, OPA infrastructure, MCD improvements    
  Dmitry Ganyushin       : Spin-Orbit,Spin-Spin,Magnetic field MRCI      
  Miquel Garcia-Rates    : C-PCM and meta-GGA Hessian, CCSD/C-PCM, Gaussian charge scheme 
  Tiago L. C. Gouveia    : GS-ROHF, GS-ROCIS                             
  Yang Guo               : DLPNO-NEVPT2, F12-NEVPT2, CIM, IAO-localization        
  Andreas Hansen         : Spin unrestricted coupled pair/coupled cluster methods 
  Ingolf Harden          : AUTO-CI MPn and infrastructure                
  Benjamin Helmich-Paris : MC-RPA, TRAH-(SCF,CASSCF), AVAS, COSX integrals, SCF dyn. polar. 
  Lee Huntington         : MR-EOM, pCC                                   
  Robert Izsak           : Overlap fitted RIJCOSX, COSX-SCS-MP3, EOM     
  Riya Kayal             : Wick's Theorem for AUTO-CI, AUTO-CI UHF-CCSDT 
  Emily Kempfer          : AUTO-CI, RHF CISDT and CCSDT                  
  Christian Kollmar      : KDIIS, OOCD, Brueckner-CCSD(T), CCSD density, CASPT2, CASPT2-K, improved NEVPT2 
  Axel Koslowski         : Symmetry handling                             
  Simone Kossmann        : meta-GGA functionals, TD-DFT gradient, OOMP2, (MP2 Hessian; deprecated post 5.0) 
  Lucas Lang             : DCDCAS                                        
  Marvin Lechner         : AUTO-CI (C++ implementation), FIC-MRCC        
  Spencer Leger          : CASSCF response                               
  Dagmar Lenk            : GEPOL surface, SMD, ORCA-2-JSON               
  Dimitrios Liakos       : Extrapolation schemes; Compound Job, initial MDCI parallelization 
  Dimitrios Manganas     : Further ROCIS development; embedding schemes. LFT, Crystal Embedding 
  Dimitrios Pantazis     : SARC Basis sets                               
  Anastasios Papadopoulos: AUTO-CI, single reference methods and gradients 
  Taras Petrenko         : pre 6.0 DFT Hessian and TD-DFT gradient, (ASA, deprecated), ECA, 1-Electron XAS/XES, NRVS 
  Peter Pinski           : DLPNO-MP2, DLPNO-MP2 Gradient                 
  Christoph Reimann      : Effective Core Potentials                     
  Marius Retegan         : Local ZFS, SOC                                
  Christoph Riplinger    : Optimizer, TS searches, QM/MM, DLPNO-CCSD(T), (RO)-DLPNO pert. Triples 
  Michael Roemelt        : Original ROCIS implementation                 
  Masaaki Saitow         : Open-shell DLPNO-CCSD energy and density      
  Barbara Sandhoefer     : DKH picture change effects                    
  Kantharuban Sivalingam : CASSCF convergence/infrastructure, NEVPT2 and variants, FIC-MRCI 
  Bernardo de Souza      : ESD, SOC TD-DFT                               
  Georgi L. Stoychev     : AutoAux, RI-MP2 NMR, DLPNO-MP2 response, X2C  
  Van Anh Tran           : RI-MP2 g-tensors                              
  Willem Van den Heuvel  : Paramagnetic NMR                              
  Zikuan Wang            : NOTCH, Electric field optimization            
  Frank Wennmohs         : Technical directorship and infrastructure     
  Hang Xu                : AUTO-CI-Response properties                   
                                                                         
[FACCTs GmbH]                                                            
  Markus Bursch, Miquel Garcia-Rates, Christoph Riplinger, Bernardo de Souza, Georgi L. Stoychev 
                                                                 
  APM, Basis sets (HGBS, AHGBS, def-TZVP (Ac-Lr), def2-XVPD (La-Lu)), CI-OPT, improved COSX, DLPNO-Multilevel,           
  DOCKER, DRACO, updates on ESD, GOAT, IRC, LR-CPCM, MBIS, meta-GGA TD-DFT gradient, ML-optimized integration grids, 
  MM, NACMEs, nearIR, NEB, NEB-TS, NL-DFT gradient (VV10), 2- and 3-layer-ONIOM, interface openCOSMO-RS, QMMM,   
  Crystal-QMMM, SF, symmetry and pop. for TD-DFT, r2SCAN hybrids, SOLVATOR                                   
                                                                         
[Other institutions]                                                     
  V. Asgeirsson          : NEB                                           
  Christoph Bannwarth    : sTDA-DFT, sTD-DFT, PBEh-3c, B97-3c, D3        
  Sebastian Ehlert       : rSCAN, r2SCAN, r2SCAN-3c, D4, dhf basis sets  
  Marvin Friede          : D4 for Fr, Ra, Ac-Lr                          
  Lars Goerigk           : TD-DFT with DH, B97 family of functionals     
  Stefan Grimme          : VdW corrections, initial TS optimization, DFT functionals, gCP, sTDA/sTD-DF 
  Waldemar Hujo          : DFT-NL                                        
  H. Jonsson             : NEB                                           
  Holger Kruse           : gCP                                           
  Marcel Mueller         : wB97X-3c, vDZP basis set                      
  Hagen Neugebauer       : wr2SCAN                                       
  Tobias Risthaus        : range-separated hybrid DFT                    
  Lukas Wittmann         : regularized MP2, r2SCAN double-hybrids, wr2SCAN        
                                                                         
We gratefully acknowledge several colleagues who have allowed us to      
interface, adapt or use parts of their codes:                            
  Ed Valeev, F. Pavosevic, A. Kumar             : LibInt (2-el integral package), F12 methods 
  Garnet Chan, S. Sharma, J. Yang, R. Olivares  : DMRG                   
  Ulf Ekstrom                                   : XCFun DFT Library      
  Mihaly Kallay                                 : mrcc  (arbitrary order and MRCC methods)
  Frank Weinhold                                : gennbo (NPA and NBO analysis)           
  Simon Mueller                                 : openCOSMO-RS                            
  Christopher J. Cramer and Donald G. Truhlar   : smd solvation model                     
  S Lehtola, MJT Oliveira, MAL Marques          : LibXC Library                           
  Liviu Ungur et al                             : ANISO software                          


 Your calculation uses the libint2 library for the computation of 2-el integrals
 For citations please refer to: http://libint.valeyev.net

 Your ORCA version has been built with support for libXC version: 6.2.2
 For citations please refer to: https://libxc.gitlab.io

 This ORCA versions uses:
   CBLAS   interface :  Fast vector & matrix operations
   LAPACKE interface :  Fast linear algebra routines
   SCALAPACK package :  Parallel linear algebra routines
   Shared memory     :  Shared parallel matrices
   BLAS/LAPACK       :  OpenBLAS 0.3.27  USE64BITINT DYNAMIC_ARCH NO_AFFINITY Zen SINGLE_THREADED
        Core in use  :  Zen
   Copyright (c) 2011-2014, The OpenBLAS Project


NOTE: MaxCore=6000 MB was set to SCF,MP2,MDCI,CIPSI,MRCI and CIS
      => If you want to overwrite this, your respective input block should be placed after the MaxCore statement
Your calculation utilizes the atom-pairwise dispersion correction
with the Becke-Johnson damping scheme (D3BJ)


Your calculation employs the composite approach B97-3c by Grimme and coworkers.
For the correct reference, please check the publication list of the Grimme group:
http://www.thch.uni-bonn.de/tc/index.php?section=publikationen&subsection=grimme#2017
   

XCFun DFT library Copyright 2009-2010 Ulf Ekstrom and contributors.
See http://admol.org/xcfun for more information.
This is free software; see the source code for copying conditions.
There is ABSOLUTELY NO WARRANTY; not even for MERCHANTABILITY or FITNESS FOR A PARTICULAR PURPOSE.
For details see the documentation.
Scientific users of this library should cite U. Ekstrom, L. Visscher, R. Bast, A. J. Thorvaldsen and K. Ruud;
J.Chem.Theor.Comp. 2010, DOI: 10.1021/ct100117s
XCFun Version 0.99 

================================================================================

----- Orbital basis set information -----
Your calculation utilizes the basis: def2-mTZVP
----- AuxJ basis set information -----
Your calculation utilizes the basis: def2-mTZVP/J
================================================================================
                                        WARNINGS
                       Please study these warnings very carefully!
================================================================================


WARNING: Geometry Optimization
  ===> : Switching off AutoStart
         For restart on a previous wavefunction, please use MOREAD

================================================================================
                                       INPUT FILE
================================================================================
NAME = m1_00_Vitamin_B3-GFN2_0-B97-3C-TZ.inp
|  1> %pal nprocs 16 end
|  2> %MaxCore 6000
|  3> # put your comments here
|  4> ! B97-3C  OPT  FREQ DEFGRID3 NOTRAH
|  5> %scf MaxIter 800 end
|  6> %output
|  7> Print [P_Hirshfeld] 1
|  8> end
|  9> %geom
| 10> MaxIter 3000
| 11>  TolE 1e-6 #TolE 5e-6 Energy change (a.u.)
| 12>  TolRMSG 3e-5 #TolRMSG 1e-4 RMS gradient (a.u.)
| 13>  TolMaxG 1e-4 #TolMaxG 3e-3 Max. element of gradient (a.u.)
| 14>  TolRMSD 2e-3 #TolRMSD 2e-3 RMS displacement (a.u.)
| 15>  TolMaxD 4e-3 #TolMaxD 4e-3 Max. displacement (a.u.)
| 16> end
| 17> * xyz 0 1
| 18>  O -2.31026877048825 -1.17256973945149 0.11164559606658
| 19>  O -2.43004829618261 1.03151799365332 -0.21315137174920
| 20>  N 1.76751598642273 -1.17744288503906 0.16787863113337
| 21>  C -0.28393633999833 0.02136152591133 -0.03574903857784
| 22>  C 0.41474731471655 1.21680931205005 -0.20120762727697
| 23>  C 0.44942383039015 -1.15136696330636 0.14596517987347
| 24>  C 1.79672413365429 1.18655484941971 -0.17777190581976
| 25>  C 2.42255755632812 -0.03907075097658 0.01028946458952
| 26>  C -1.76389345814364 0.03908695103675 -0.05855888950989
| 27>  H -0.13693583895075 2.13448917103644 -0.34307877479728
| 28>  H -0.04951156844748 -2.10124667600831 0.27813502147868
| 29>  H 2.37648302343169 2.08772871821675 -0.30174917102808
| 30>  H 3.50161409838416 -0.11751384826319 0.03652634479036
| 31>  H -3.27772491640354 -1.10390748602786 0.08833440407717
| 32> *
| 33> 
| 34> 
| 35> 
| 36> 
| 37>                          ****END OF INPUT****
================================================================================

                       *****************************
                       * Geometry Optimization Run *
                       *****************************

Geometry optimization settings:
Update method            Update   .... BFGS
Choice of coordinates    CoordSys .... (2022) Redundant Internals
Initial Hessian          InHess   .... Almloef's Model
Max. no of cycles        MaxIter  .... 3000

Convergence Tolerances:
Energy Change            TolE     ....  1.0000e-06 Eh
Max. Gradient            TolMAXG  ....  1.0000e-04 Eh/bohr
RMS Gradient             TolRMSG  ....  3.0000e-05 Eh/bohr
Max. Displacement        TolMAXD  ....  4.0000e-03 bohr
RMS Displacement         TolRMSD  ....  2.0000e-03 bohr
Strict Convergence                .... False

------------------------------------------------------------------------------
                        ORCA OPTIMIZATION COORDINATE SETUP
------------------------------------------------------------------------------

The optimization will be done in redundant internal coordinates (2022)
Making redundant internal coordinates   ...  (2022 redundants) done
Evaluating the initial hessian          ...  (Almloef) done
Evaluating the coordinates              ...  done
Calculating the B-matrix                .... done
Calculating the G-matrix                .... done
Diagonalizing the G-matrix              .... done
The first mode is                       ....   24
The number of degrees of freedom        ....   36

    -----------------------------------------------------------------
                    Redundant Internal Coordinates


    -----------------------------------------------------------------
         Definition                    Initial Value    Approx d2E/dq
    -----------------------------------------------------------------
      1. B(C   4,C   3)                  1.3945         0.614552   
      2. B(C   5,N   2)                  1.3185         0.727609   
      3. B(C   5,C   3)                  1.3950         0.613341   
      4. B(C   6,C   4)                  1.3825         0.642235   
      5. B(C   7,C   6)                  1.3890         0.627202   
      6. B(C   7,N   2)                  1.3228         0.716285   
      7. B(C   8,O   0)                  1.3400         0.672423   
      8. B(C   8,C   3)                  1.4802         0.448506   
      9. B(C   8,O   1)                  1.2052         1.103223   
     10. B(H   9,C   4)                  1.0801         0.373436   
     11. B(H  10,C   5)                  1.0811         0.372132   
     12. B(H  11,C   6)                  1.0787         0.375356   
     13. B(H  12,C   7)                  1.0822         0.370538   
     14. B(H  13,O   0)                  0.9702         0.500889   
     15. A(C   8,O   0,H  13)          109.8497         0.372917   
     16. A(C   5,N   2,C   7)          118.4263         0.452620   
     17. A(C   4,C   3,C   5)          118.2108         0.432537   
     18. A(C   5,C   3,C   8)          122.5249         0.408899   
     19. A(C   4,C   3,C   8)          119.2643         0.409041   
     20. A(C   3,C   4,H   9)          119.2107         0.354559   
     21. A(C   3,C   4,C   6)          118.6896         0.436135   
     22. A(C   6,C   4,H   9)          122.0997         0.357221   
     23. A(C   3,C   5,H  10)          120.7934         0.354230   
     24. A(N   2,C   5,H  10)          116.2293         0.362419   
     25. A(N   2,C   5,C   3)          122.9773         0.442984   
     26. A(C   4,C   6,C   7)          118.1650         0.437739   
     27. A(C   7,C   6,H  11)          120.7023         0.356096   
     28. A(C   4,C   6,H  11)          121.1327         0.357532   
     29. A(N   2,C   7,C   6)          123.5310         0.443519   
     30. A(C   6,C   7,H  12)          121.0980         0.355316   
     31. A(N   2,C   7,H  12)          115.3710         0.361185   
     32. A(O   0,C   8,O   1)          122.3773         0.482867   
     33. A(O   1,C   8,C   3)          124.3642         0.451352   
     34. A(O   0,C   8,C   3)          113.2584         0.412940   
     35. D(H   9,C   4,C   3,C   5)   -179.9988         0.026106   
     36. D(C   6,C   4,C   3,C   8)    179.9939         0.026106   
     37. D(H   9,C   4,C   3,C   8)      0.0002         0.026106   
     38. D(C   6,C   4,C   3,C   5)     -0.0051         0.026106   
     39. D(N   2,C   5,C   3,C   8)   -179.9953         0.025998   
     40. D(N   2,C   5,C   3,C   4)      0.0037         0.025998   
     41. D(C   3,C   5,N   2,C   7)      0.0017         0.039952   
     42. D(H  10,C   5,N   2,C   7)   -179.9988         0.039952   
     43. D(H  10,C   5,C   3,C   4)   -179.9958         0.025998   
     44. D(H  10,C   5,C   3,C   8)      0.0052         0.025998   
     45. D(H  11,C   6,C   4,H   9)     -0.0052         0.028671   
     46. D(C   7,C   6,C   4,H   9)    179.9950         0.028671   
     47. D(C   7,C   6,C   4,C   3)      0.0015         0.028671   
     48. D(H  11,C   6,C   4,C   3)   -179.9987         0.028671   
     49. D(C   6,C   7,N   2,C   5)     -0.0057         0.038595   
     50. D(H  12,C   7,C   6,H  11)     -0.0053         0.027260   
     51. D(H  12,C   7,C   6,C   4)    179.9946         0.027260   
     52. D(N   2,C   7,C   6,H  11)   -179.9957         0.027260   
     53. D(N   2,C   7,C   6,C   4)      0.0042         0.027260   
     54. D(H  12,C   7,N   2,C   5)   -179.9967         0.038595   
     55. D(O   1,C   8,C   3,C   5)   -179.9890         0.013714   
     56. D(O   1,C   8,C   3,C   4)      0.0120         0.013714   
     57. D(O   0,C   8,C   3,C   5)      0.0125         0.013714   
     58. D(O   0,C   8,C   3,C   4)   -179.9865         0.013714   
     59. D(C   3,C   8,O   0,H  13)   -179.9981         0.033610   
     60. D(O   1,C   8,O   0,H  13)      0.0034         0.033610   
    -----------------------------------------------------------------

Number of atoms                         .... 14
Number of degrees of freedom            .... 60


         *************************************************************
         *                GEOMETRY OPTIMIZATION CYCLE   1            *
         *************************************************************
---------------------------------
CARTESIAN COORDINATES (ANGSTROEM)
---------------------------------
  O     -2.310269   -1.172570    0.111646
  O     -2.430048    1.031518   -0.213151
  N      1.767516   -1.177443    0.167879
  C     -0.283936    0.021362   -0.035749
  C      0.414747    1.216809   -0.201208
  C      0.449424   -1.151367    0.145965
  C      1.796724    1.186555   -0.177772
  C      2.422558   -0.039071    0.010289
  C     -1.763893    0.039087   -0.058559
  H     -0.136936    2.134489   -0.343079
  H     -0.049512   -2.101247    0.278135
  H      2.376483    2.087729   -0.301749
  H      3.501614   -0.117514    0.036526
  H     -3.277725   -1.103907    0.088334

----------------------------
CARTESIAN COORDINATES (A.U.)
----------------------------
  NO LB      ZA    FRAG     MASS         X           Y           Z
   0 O     8.0000    0    15.999   -4.365775   -2.215836    0.210980
   1 O     8.0000    0    15.999   -4.592126    1.949287   -0.402798
   2 N     7.0000    0    14.007    3.340121   -2.225045    0.317245
   3 C     6.0000    0    12.011   -0.536562    0.040367   -0.067556
   4 C     6.0000    0    12.011    0.783759    2.299436   -0.380227
   5 C     6.0000    0    12.011    0.849288   -2.175768    0.275834
   6 C     6.0000    0    12.011    3.395317    2.242264   -0.335940
   7 C     6.0000    0    12.011    4.577970   -0.073833    0.019444
   8 C     6.0000    0    12.011   -3.333276    0.073864   -0.110660
   9 H     1.0000    0     1.008   -0.258771    4.033600   -0.648325
  10 H     1.0000    0     1.008   -0.093563   -3.970781    0.525599
  11 H     1.0000    0     1.008    4.490902    3.945236   -0.570223
  12 H     1.0000    0     1.008    6.617092   -0.222069    0.069025
  13 H     1.0000    0     1.008   -6.194002   -2.086083    0.166928

--------------------------------
INTERNAL COORDINATES (ANGSTROEM)
--------------------------------
 O      0   0   0     0.000000000000     0.00000000     0.00000000
 O      1   0   0     2.231108007314     0.00000000     0.00000000
 N      1   2   0     4.078175379441    93.26009865     0.00000000
 C      1   2   3     2.356527140431    62.38975162     0.00000000
 C      4   1   2     1.394500198395   150.75923392     0.02333463
 C      3   1   2     1.318532170573     1.07703003   359.66949034
 C      5   4   1     1.382506598042   118.68962299   179.97950838
 C      3   1   2     1.322801919913   119.50332229     0.00000000
 C      2   1   3     1.205230466822    30.47951838     0.00000000
 H      5   4   1     1.080100943490   119.21069700     0.00000000
 H      6   3   8     1.081053591570   116.22927382   180.00118284
 H      7   5   4     1.078705276879   121.13268349   180.00134700
 H      8   3   1     1.082222118767   115.37103046   179.99585691
 H      1   2   3     0.970169733081    82.70660922   180.00424402

---------------------------
INTERNAL COORDINATES (A.U.)
---------------------------
 O      0   0   0     0.000000000000     0.00000000     0.00000000
 O      1   0   0     4.216183109022     0.00000000     0.00000000
 N      1   2   0     7.706634593243    93.26009865     0.00000000
 C      1   2   3     4.453190922567    62.38975162     0.00000000
 C      4   1   2     2.635223468666   150.75923392     0.02333463
 C      3   1   2     2.491664701147     1.07703003   359.66949034
 C      5   4   1     2.612558848639   118.68962299   179.97950838
 C      3   1   2     2.499733358061   119.50332229     0.00000000
 C      2   1   3     2.277555510552    30.47951838     0.00000000
 H      5   4   1     2.041094980186   119.21069700     0.00000000
 H      6   3   8     2.042895224159   116.22927382   180.00118284
 H      7   5   4     2.038457552517   121.13268349   180.00134700
 H      8   3   1     2.045103420542   115.37103046   179.99585691
 H      1   2   3     1.833355098943    82.70660922   180.00424402

---------------------
BASIS SET INFORMATION
---------------------
There are 4 groups of distinct atoms

 Group   1 Type O   : 11s6p2d contracted to 5s3p2d pattern {62111/411/11}
 Group   2 Type N   : 11s6p1d contracted to 5s3p1d pattern {62111/411/1}
 Group   3 Type C   : 11s6p1d contracted to 5s3p1d pattern {62111/411/1}
 Group   4 Type H   : 5s contracted to 3s pattern {311}

Atom   0O    basis set group =>   1
Atom   1O    basis set group =>   1
Atom   2N    basis set group =>   2
Atom   3C    basis set group =>   3
Atom   4C    basis set group =>   3
Atom   5C    basis set group =>   3
Atom   6C    basis set group =>   3
Atom   7C    basis set group =>   3
Atom   8C    basis set group =>   3
Atom   9H    basis set group =>   4
Atom  10H    basis set group =>   4
Atom  11H    basis set group =>   4
Atom  12H    basis set group =>   4
Atom  13H    basis set group =>   4
---------------------------------
AUXILIARY/J BASIS SET INFORMATION
---------------------------------
There are 4 groups of distinct atoms

 Group   1 Type O   : 8s3p3d contracted to 6s3p3d pattern {311111/111/111}
 Group   2 Type N   : 8s3p3d contracted to 6s3p3d pattern {311111/111/111}
 Group   3 Type C   : 8s3p3d contracted to 6s3p3d pattern {311111/111/111}
 Group   4 Type H   : 5s2p contracted to 3s1p pattern {311/2}

Atom   0O    basis set group =>   1
Atom   1O    basis set group =>   1
Atom   2N    basis set group =>   2
Atom   3C    basis set group =>   3
Atom   4C    basis set group =>   3
Atom   5C    basis set group =>   3
Atom   6C    basis set group =>   3
Atom   7C    basis set group =>   3
Atom   8C    basis set group =>   3
Atom   9H    basis set group =>   4
Atom  10H    basis set group =>   4
Atom  11H    basis set group =>   4
Atom  12H    basis set group =>   4
Atom  13H    basis set group =>   4


           ************************************************************
           *        Program running with 16 parallel MPI-processes    *
           *              working on a common directory               *
           ************************************************************
------------------------------------------------------------------------------
                             ORCA STARTUP CALCULATIONS
                           -- RI-GTO INTEGRALS CHOSEN --
------------------------------------------------------------------------------
------------------------------------------------------------------------------
                   ___                                                        
                  /   \      - P O W E R E D   B Y -                         
                 /     \                                                     
                 |  |  |   _    _      __       _____    __    __             
                 |  |  |  | |  | |    /  \     |  _  \  |  |  /  |          
                  \  \/   | |  | |   /    \    | | | |  |  | /  /          
                 / \  \   | |__| |  /  /\  \   | |_| |  |  |/  /          
                |  |  |   |  __  | /  /__\  \  |    /   |      \           
                |  |  |   | |  | | |   __   |  |    \   |  |\   \          
                \     /   | |  | | |  |  |  |  | |\  \  |  | \   \       
                 \___/    |_|  |_| |__|  |__|  |_| \__\ |__|  \__/        
                                                                              
                      - O R C A' S   B I G   F R I E N D -                    
                                      &                                       
                       - I N T E G R A L  F E E D E R -                       
                                                                              
 v1 FN, 2020, v2 2021, v3 2022-2024                                           
------------------------------------------------------------------------------


----------------------
SHARK INTEGRAL PACKAGE
----------------------

Number of atoms                             ...     14
Number of basis functions                   ...    196
Number of shells                            ...     98
Maximum angular momentum                    ...      2
Integral batch strategy                     ... SHARK/LIBINT Hybrid
RI-J (if used) integral strategy            ... SPLIT-RIJ (Revised 2003 algorithm where possible)
Printlevel                                  ...      1
Contraction scheme used                     ... SEGMENTED contraction
Prescreening option                         ... SCHWARTZ
   Thresh                                   ... 2.500e-11
   Tcut                                     ... 2.500e-12
   Tpresel                                  ... 2.500e-12 
Coulomb Range Separation                    ... NOT USED
Exchange Range Separation                   ... NOT USED
Multipole approximations                    ... NOT USED
Finite Nucleus Model                        ... NOT USED
CABS basis                                  ... NOT available
Auxiliary Coulomb fitting basis             ... AVAILABLE
   # of basis functions in Aux-J            ...    300
   # of shells in Aux-J                     ...    128
   Maximum angular momentum in Aux-J        ...      2
Auxiliary J/K fitting basis                 ... NOT available
Auxiliary Correlation fitting basis         ... NOT available
Auxiliary 'external' fitting basis          ... NOT available

Checking pre-screening integrals            ... done (  0.0 sec) Dimension = 98
Check shell pair data                       ... done (  0.0 sec)
Shell pair information
Shell pair cut-off parameter TPreSel        ...   2.5e-12
Total number of shell pairs                 ...      4851
Shell pairs after pre-screening             ...      4399
Total number of primitive shell pairs       ...     18168
Primitive shell pairs kept                  ...     11707
          la=0 lb=0:   1555 shell pairs
          la=1 lb=0:   1526 shell pairs
          la=1 lb=1:    372 shell pairs
          la=2 lb=0:    596 shell pairs
          la=2 lb=1:    288 shell pairs
          la=2 lb=2:     62 shell pairs

Calculating one electron integrals          ... done (  0.0 sec)
Calculating RI/J V-Matrix + Cholesky decomp.... done (  0.0 sec)
Calculating Nuclear repulsion               ... done (  0.0 sec) ENN=    410.373548207466 Eh

Diagonalization of the overlap matrix:
Smallest eigenvalue                        ... 4.828e-05
Time for diagonalization                   ...    0.003 sec
Threshold for overlap eigenvalues          ... 1.000e-07
Number of eigenvalues below threshold      ... 0
Time for construction of square roots      ...    0.001 sec
Total time needed                          ...    0.004 sec

-------------------
DFT GRID GENERATION
-------------------

General Integration Accuracy     IntAcc      ... 4.959
Radial Grid Type                 RadialGrid  ... OptM3 with GC (2021)
Angular Grid (max. ang.)         AngularGrid ... 6 (Lebedev-590)
Angular grid pruning method      GridPruning ... 4 (adaptive)
Weight generation scheme         WeightScheme... mBecke (2022)
Basis function cutoff            BFCut       ... 1.0000e-11
Integration weight cutoff        WCut        ... 1.0000e-14
Partially contracted basis set               ... off
Rotationally invariant grid construction     ... off
Angular grids for H and He will be reduced by one unit
Diffuse basis detected: some atoms will have their outermost
                        angular grid increased by 1.

Total number of grid points                  ...   173854
Total number of batches                      ...     2723
Average number of points per batch           ...       63
Average number of grid points per atom       ...    12418
Initializing property integral containers    ... done (  0.0 sec)

SHARK setup successfully completed in   1.4 seconds

Maximum memory used throughout the entire STARTUP-calculation: 36.5 MB


           ************************************************************
           *        Program running with 16 parallel MPI-processes    *
           *              working on a common directory               *
           ************************************************************
-------------------------------------------------------------------------------
                                 ORCA GUESS
                   Start orbitals & Density for SCF / CASSCF
-------------------------------------------------------------------------------

------------
SCF SETTINGS
------------
Hamiltonian:
 Density Functional     Method          .... DFT(GTOs)
 Exchange Functional    Exchange        .... B973C
 Correlation Functional Correlation     .... B973C
 Gradients option       PostSCFGGA      .... off
 RI-approximation to the Coulomb term is turned on
   Number of AuxJ basis functions       .... 300


General Settings:
 Integral files         IntName         .... m1_00_Vitamin_B3-GFN2_0-B97-3C-TZ
 Hartree-Fock type      HFTyp           .... RHF
 Total Charge           Charge          ....    0
 Multiplicity           Mult            ....    1
 Number of Electrons    NEL             ....   64
 Basis Dimension        Dim             ....  196
 Nuclear Repulsion      ENuc            ....    410.3735482075 Eh

Convergence Acceleration:
 AO-DIIS                CNVDIIS         .... on
   Start iteration      DIISMaxIt       ....    12
   Startup error        DIISStart       ....  0.200000
   # of expansion vecs  DIISMaxEq       ....     5
   Bias factor          DIISBfac        ....   1.050
   Max. coefficient     DIISMaxC        ....  10.000
 MO-DIIS                CNVKDIIS        .... off
 Trust-Rad. Augm. Hess. CNVTRAH         .... off
 SOSCF                  CNVSOSCF        .... on
   Start iteration      SOSCFMaxIt      ....   150
   Startup grad/error   SOSCFStart      ....  0.003300
   Hessian update       SOSCFHessUp     .... L-BFGS
 Level Shifting         CNVShift        .... on
   Level shift para.    LevelShift      ....    0.2500
   Turn off err/grad.   ShiftErr        ....    0.0010
 Zerner damping         CNVZerner       .... off
 Static damping         CNVDamp         .... on
   Fraction old density DampFac         ....    0.7000
   Max. Damping (<1)    DampMax         ....    0.9800
   Min. Damping (>=0)   DampMin         ....    0.0000
   Turn off err/grad.   DampErr         ....    0.1000

SCF Procedure:
 Maximum # iterations   MaxIter         ....   800
 SCF integral mode      SCFMode         .... Direct
   Integral package                     .... SHARK and LIBINT hybrid scheme
 Reset frequency        DirectResetFreq ....    20
 Integral Threshold     Thresh          ....  2.500e-11 Eh
 Primitive CutOff       TCut            ....  2.500e-12 Eh

Convergence Tolerance:
 Convergence Check Mode ConvCheckMode   .... Total+1el-Energy
 Convergence forced     ConvForced      .... 0
 Energy Change          TolE            ....  1.000e-08 Eh
 1-El. energy change                    ....  1.000e-05 Eh
 Orbital Gradient       TolG            ....  1.000e-05
 Orbital Rotation angle TolX            ....  1.000e-05
 DIIS Error             TolErr          ....  5.000e-07

--------------------------------
INITIAL GUESS: MINIMAL BASIS EHT
--------------------------------
The minimal basis has 50 functions
EHT matrix was diagonalized
Basis set overlap was calculated now projecting the orbitals
Using GuessMode=FMatrix for the initial guess
C*T matrix was formed
Effective Fockian was calculated
Effective Fockian was diagonalized
Initial density was built
                      ------------------
                      INITIAL GUESS DONE
                      ------------------
             **** ENERGY FILE WAS UPDATED (m1_00_Vitamin_B3-GFN2_0-B97-3C-TZ.en.tmp) ****
Finished Guess after   0.1 sec
Maximum memory used throughout the entire GUESS-calculation: 9.6 MB


           ************************************************************
           *        Program running with 16 parallel MPI-processes    *
           *              working on a common directory               *
           ************************************************************

-------------------------------------------------------------------------------------------
                                      ORCA LEAN-SCF
                              memory conserving SCF solver
-------------------------------------------------------------------------------------------

----------------------------------------D-I-I-S--------------------------------------------
Iteration    Energy (Eh)           Delta-E    RMSDP     MaxDP     DIISErr   Damp  Time(sec)
-------------------------------------------------------------------------------------------
               ***  Starting incremental Fock matrix formation  ***
    1    -434.9576287626919111     0.00e+00  7.55e-03  1.54e-01  4.72e-01  0.700   0.2
Warning: op=0 Small HOMO/LUMO gap (   0.057) - skipping pre-diagonalization
         Will do a full diagonalization
    2    -435.5651830407166472    -6.08e-01  5.85e-03  1.35e-01  3.33e-01  0.700   0.2
    3    -435.8690487134410887    -3.04e-01  3.01e-03  6.29e-02  2.32e-01  0.700   0.1
                               ***Turning on AO-DIIS***
    4    -436.0796332870388596    -2.11e-01  2.26e-03  6.37e-02  1.62e-01  0.700   0.1
    5    -436.2284224290615384    -1.49e-01  1.63e-03  5.04e-02  1.13e-01  0.700   0.1
    6    -436.3333386418042892    -1.05e-01  1.07e-03  2.91e-02  7.92e-02  0.700   0.1
    7    -436.4077241305961934    -7.44e-02  2.48e-03  5.58e-02  5.56e-02  0.000   0.1
    8    -436.5796431547917109    -1.72e-01  5.36e-04  1.30e-02  2.60e-02  0.000   0.1
    9    -436.5811974154119071    -1.55e-03  1.77e-04  3.88e-03  8.80e-03  0.000   0.1
   10    -436.5812451948323769    -4.78e-05  6.77e-05  1.78e-03  6.86e-03  0.000   0.1
                              *** Initializing SOSCF ***
---------------------------------------S-O-S-C-F--------------------------------------
Iteration    Energy (Eh)           Delta-E    RMSDP     MaxDP     MaxGrad    Time(sec)
--------------------------------------------------------------------------------------
   11    -436.5813392944407951    -9.41e-05  2.71e-05  4.99e-04  1.11e-03     0.1
               *** Restarting incremental Fock matrix formation ***
   12    -436.5813450170539909    -5.72e-06  3.26e-05  9.42e-04  1.42e-04     0.1
   13    -436.5813428713020130     2.15e-06  2.03e-05  4.23e-04  3.31e-04     0.1
   14    -436.5813454423341682    -2.57e-06  1.07e-05  3.63e-04  4.33e-05     0.1
   15    -436.5813452530935592     1.89e-07  7.04e-06  2.70e-04  1.11e-04     0.1
   16    -436.5813454834407139    -2.30e-07  2.66e-06  8.83e-05  1.17e-05     0.1
   17    -436.5813454712434805     1.22e-08  1.83e-06  4.17e-05  3.07e-05     0.1
   18    -436.5813454866945449    -1.55e-08  1.46e-06  5.92e-05  1.13e-06     0.1
                  *** Gradient check signals convergence ***

               *****************************************************
               *                     SUCCESS                       *
               *           SCF CONVERGED AFTER  18 CYCLES          *
               *****************************************************

             **** ENERGY FILE WAS UPDATED (m1_00_Vitamin_B3-GFN2_0-B97-3C-TZ.en.tmp) ****

----------------
TOTAL SCF ENERGY
----------------

Total Energy       :       -436.58134548669454 Eh          -11879.98238 eV

Components:
Nuclear Repulsion  :        410.37354820746600 Eh           11166.83196 eV
Electronic Energy  :       -846.95489369416055 Eh          -23046.81433 eV
One Electron Energy:      -1406.94191363665868 Eh          -38284.83583 eV
Two Electron Energy:        559.98701994249814 Eh           15238.02150 eV

Virial components:
Potential Energy   :       -871.70440331271629 Eh          -23720.28273 eV
Kinetic Energy     :        435.12305782602175 Eh           11840.30035 eV
Virial Ratio       :          2.00335143733352

DFT components:
N(Alpha)           :       32.000001693876 electrons
N(Beta)            :       32.000001693876 electrons
N(Total)           :       64.000003387752 electrons
E(XC)              :      -58.192084565399 Eh       

---------------
SCF CONVERGENCE
---------------

  Last Energy change         ...    1.5451e-08  Tolerance :   1.0000e-08
  Last MAX-Density change    ...    5.9177e-05  Tolerance :   1.0000e-07
  Last RMS-Density change    ...    1.4626e-06  Tolerance :   5.0000e-09
  Last DIIS Error            ...    1.1138e-03  Tolerance :   5.0000e-07
  Last Orbital Gradient      ...    1.1343e-06  Tolerance :   1.0000e-05
  Last Orbital Rotation      ...    6.0690e-06  Tolerance :   1.0000e-05


----------------
ORBITAL ENERGIES
----------------

  NO   OCC          E(Eh)            E(eV) 
   0   2.0000     -18.804191      -511.6881 
   1   2.0000     -18.739712      -509.9335 
   2   2.0000     -13.994546      -380.8110 
   3   2.0000     -10.029680      -272.9215 
   4   2.0000      -9.941734      -270.5283 
   5   2.0000      -9.941659      -270.5263 
   6   2.0000      -9.928286      -270.1624 
   7   2.0000      -9.927859      -270.1508 
   8   2.0000      -9.918069      -269.8844 
   9   2.0000      -1.039578       -28.2883 
  10   2.0000      -0.949828       -25.8461 
  11   2.0000      -0.890608       -24.2347 
  12   2.0000      -0.761822       -20.7302 
  13   2.0000      -0.724729       -19.7209 
  14   2.0000      -0.633976       -17.2514 
  15   2.0000      -0.593802       -16.1582 
  16   2.0000      -0.563565       -15.3354 
  17   2.0000      -0.502453       -13.6724 
  18   2.0000      -0.470793       -12.8109 
  19   2.0000      -0.448156       -12.1949 
  20   2.0000      -0.432527       -11.7697 
  21   2.0000      -0.420229       -11.4350 
  22   2.0000      -0.412314       -11.2196 
  23   2.0000      -0.375528       -10.2186 
  24   2.0000      -0.373300       -10.1580 
  25   2.0000      -0.360875        -9.8199 
  26   2.0000      -0.346563        -9.4305 
  27   2.0000      -0.296068        -8.0564 
  28   2.0000      -0.275688        -7.5019 
  29   2.0000      -0.256615        -6.9828 
  30   2.0000      -0.250310        -6.8113 
  31   2.0000      -0.224087        -6.0977 
  32   0.0000      -0.094404        -2.5689 
  33   0.0000      -0.066557        -1.8111 
  34   0.0000       0.002164         0.0589 
  35   0.0000       0.010574         0.2877 
  36   0.0000       0.042845         1.1659 
  37   0.0000       0.075117         2.0440 
  38   0.0000       0.081090         2.2066 
  39   0.0000       0.096092         2.6148 
  40   0.0000       0.101247         2.7551 
  41   0.0000       0.105875         2.8810 
  42   0.0000       0.124972         3.4007 
*Only the first 10 virtual orbitals were printed.

                    ********************************
                    * MULLIKEN POPULATION ANALYSIS *
                    ********************************

-----------------------
MULLIKEN ATOMIC CHARGES
-----------------------
   0 O :   -0.515989
   1 O :   -0.385441
   2 N :   -0.051805
   3 C :    0.172743
   4 C :   -0.218090
   5 C :   -0.154565
   6 C :   -0.057675
   7 C :   -0.166931
   8 C :    0.208197
   9 H :    0.207642
  10 H :    0.182382
  11 H :    0.182166
  12 H :    0.154666
  13 H :    0.442701
Sum of atomic charges:   -0.0000000

--------------------------------
MULLIKEN REDUCED ORBITAL CHARGES
--------------------------------
  0 O s       :     3.771364  s :     3.771364
      pz      :     1.783677  p :     4.700508
      px      :     1.391264
      py      :     1.525567
      dz2     :     0.005392  d :     0.044117
      dxz     :     0.005254
      dyz     :     0.004499
      dx2y2   :     0.022343
      dxy     :     0.006630

  1 O s       :     3.838556  s :     3.838556
      pz      :     1.425715  p :     4.514869
      px      :     1.629870
      py      :     1.459284
      dz2     :     0.005971  d :     0.032017
      dxz     :     0.005667
      dyz     :     0.003128
      dx2y2   :     0.006843
      dxy     :     0.010407

  2 N s       :     3.458112  s :     3.458112
      pz      :     1.121920  p :     3.547031
      px      :     1.081178
      py      :     1.343932
      dz2     :     0.005063  d :     0.046663
      dxz     :     0.006999
      dyz     :     0.006625
      dx2y2   :     0.016473
      dxy     :     0.011503

  3 C s       :     3.088892  s :     3.088892
      pz      :     1.027134  p :     2.693144
      px      :     0.887607
      py      :     0.778404
      dz2     :     0.003897  d :     0.045220
      dxz     :     0.004003
      dyz     :     0.005870
      dx2y2   :     0.017410
      dxy     :     0.014039

  4 C s       :     3.239748  s :     3.239748
      pz      :     0.906996  p :     2.936715
      px      :     1.005863
      py      :     1.023856
      dz2     :     0.003762  d :     0.041626
      dxz     :     0.005915
      dyz     :     0.003519
      dx2y2   :     0.012466
      dxy     :     0.015963

  5 C s       :     3.239921  s :     3.239921
      pz      :     0.901827  p :     2.855875
      px      :     0.964731
      py      :     0.989318
      dz2     :     0.004171  d :     0.058768
      dxz     :     0.008898
      dyz     :     0.003430
      dx2y2   :     0.017097
      dxy     :     0.025172

  6 C s       :     3.051236  s :     3.051236
      pz      :     0.998549  p :     2.966102
      px      :     0.978352
      py      :     0.989201
      dz2     :     0.003913  d :     0.040337
      dxz     :     0.004725
      dyz     :     0.003226
      dx2y2   :     0.012898
      dxy     :     0.015575

  7 C s       :     3.240444  s :     3.240444
      pz      :     0.912450  p :     2.867760
      px      :     1.034921
      py      :     0.920389
      dz2     :     0.004488  d :     0.058728
      dxz     :     0.002979
      dyz     :     0.009019
      dx2y2   :     0.025331
      dxy     :     0.016911

  8 C s       :     3.125303  s :     3.125303
      pz      :     0.805867  p :     2.544288
      px      :     0.932583
      py      :     0.805838
      dz2     :     0.006193  d :     0.122212
      dxz     :     0.010822
      dyz     :     0.024587
      dx2y2   :     0.047802
      dxy     :     0.032809

  9 H s       :     0.792358  s :     0.792358

 10 H s       :     0.817618  s :     0.817618

 11 H s       :     0.817834  s :     0.817834

 12 H s       :     0.845334  s :     0.845334

 13 H s       :     0.557299  s :     0.557299



                     *******************************
                     * LOEWDIN POPULATION ANALYSIS *
                     *******************************

----------------------
LOEWDIN ATOMIC CHARGES
----------------------
   0 O :   -0.517075
   1 O :   -0.415333
   2 N :   -0.172448
   3 C :   -0.025512
   4 C :   -0.078903
   5 C :   -0.024128
   6 C :   -0.171282
   7 C :   -0.052069
   8 C :    0.362754
   9 H :    0.195601
  10 H :    0.182410
  11 H :    0.173951
  12 H :    0.160292
  13 H :    0.381742

-------------------------------
LOEWDIN REDUCED ORBITAL CHARGES
-------------------------------
  0 O s       :     3.511319  s :     3.511319
      pz      :     1.751961  p :     4.723943
      px      :     1.396657
      py      :     1.575325
      dz2     :     0.041975  d :     0.281812
      dxz     :     0.020469
      dyz     :     0.049576
      dx2y2   :     0.094735
      dxy     :     0.075058

  1 O s       :     3.531965  s :     3.531965
      pz      :     1.415319  p :     4.630641
      px      :     1.659378
      py      :     1.555945
      dz2     :     0.033812  d :     0.252726
      dxz     :     0.023821
      dyz     :     0.043310
      dx2y2   :     0.074028
      dxy     :     0.077756

  2 N s       :     3.220514  s :     3.220514
      pz      :     1.117429  p :     3.864089
      px      :     1.281139
      py      :     1.465522
      dz2     :     0.009548  d :     0.087845
      dxz     :     0.012782
      dyz     :     0.008900
      dx2y2   :     0.032259
      dxy     :     0.024356

  3 C s       :     2.843170  s :     2.843170
      pz      :     0.989413  p :     3.088365
      px      :     1.004722
      py      :     1.094230
      dz2     :     0.007837  d :     0.093976
      dxz     :     0.006714
      dyz     :     0.010877
      dx2y2   :     0.036245
      dxy     :     0.032303

  4 C s       :     2.901621  s :     2.901621
      pz      :     0.908257  p :     3.096192
      px      :     1.094730
      py      :     1.093206
      dz2     :     0.006082  d :     0.081089
      dxz     :     0.010620
      dyz     :     0.005930
      dx2y2   :     0.027201
      dxy     :     0.031256

  5 C s       :     2.882328  s :     2.882328
      pz      :     0.902893  p :     3.022087
      px      :     1.032822
      py      :     1.086372
      dz2     :     0.008247  d :     0.119713
      dxz     :     0.015733
      dyz     :     0.005745
      dx2y2   :     0.037517
      dxy     :     0.052471

  6 C s       :     2.908983  s :     2.908983
      pz      :     0.987644  p :     3.181948
      px      :     1.101485
      py      :     1.092819
      dz2     :     0.006512  d :     0.080352
      dxz     :     0.008581
      dyz     :     0.005431
      dx2y2   :     0.028382
      dxy     :     0.031447

  7 C s       :     2.892004  s :     2.892004
      pz      :     0.909640  p :     3.040703
      px      :     1.078173
      py      :     1.052890
      dz2     :     0.008454  d :     0.119362
      dxz     :     0.004319
      dyz     :     0.017002
      dx2y2   :     0.053342
      dxy     :     0.036244

  8 C s       :     2.737622  s :     2.737622
      pz      :     0.741712  p :     2.628989
      px      :     0.964821
      py      :     0.922457
      dz2     :     0.018565  d :     0.270634
      dxz     :     0.018074
      dyz     :     0.047918
      dx2y2   :     0.108203
      dxy     :     0.077874

  9 H s       :     0.804399  s :     0.804399

 10 H s       :     0.817590  s :     0.817590

 11 H s       :     0.826049  s :     0.826049

 12 H s       :     0.839708  s :     0.839708

 13 H s       :     0.618258  s :     0.618258



                      *****************************
                      * MAYER POPULATION ANALYSIS *
                      *****************************

  NA   - Mulliken gross atomic population
  ZA   - Total nuclear charge
  QA   - Mulliken gross atomic charge
  VA   - Mayer's total valence
  BVA  - Mayer's bonded valence
  FA   - Mayer's free valence

  ATOM       NA         ZA         QA         VA         BVA        FA
  0 O      8.5160     8.0000    -0.5160     1.9605     1.9605    -0.0000
  1 O      8.3854     8.0000    -0.3854     2.1276     2.1276    -0.0000
  2 N      7.0518     7.0000    -0.0518     3.1240     3.1240     0.0000
  3 C      5.8273     6.0000     0.1727     3.5309     3.5309     0.0000
  4 C      6.2181     6.0000    -0.2181     3.9183     3.9183    -0.0000
  5 C      6.1546     6.0000    -0.1546     3.8761     3.8761     0.0000
  6 C      6.0577     6.0000    -0.0577     3.7033     3.7033    -0.0000
  7 C      6.1669     6.0000    -0.1669     4.0124     4.0124    -0.0000
  8 C      5.7918     6.0000     0.2082     4.2381     4.2381     0.0000
  9 H      0.7924     1.0000     0.2076     0.9392     0.9392    -0.0000
 10 H      0.8176     1.0000     0.1824     0.9672     0.9672    -0.0000
 11 H      0.8178     1.0000     0.1822     0.9304     0.9304    -0.0000
 12 H      0.8453     1.0000     0.1547     0.9534     0.9534    -0.0000
 13 H      0.5573     1.0000     0.4427     0.7899     0.7899    -0.0000

  Mayer bond orders larger than 0.100000
B(  0-O ,  3-C ) :  -0.1241 B(  0-O ,  8-C ) :   1.1780 B(  0-O , 13-H ) :   0.7275 
B(  1-O ,  8-C ) :   1.9717 B(  2-N ,  5-C ) :   1.5542 B(  2-N ,  7-C ) :   1.5353 
B(  3-C ,  4-C ) :   1.4089 B(  3-C ,  5-C ) :   1.2882 B(  3-C ,  8-C ) :   0.9932 
B(  4-C ,  6-C ) :   1.4309 B(  4-C ,  9-H ) :   0.9257 B(  5-C , 10-H ) :   0.9426 
B(  6-C ,  7-C ) :   1.3626 B(  6-C , 11-H ) :   0.9068 B(  7-C , 12-H ) :   0.9580 



------------------
HIRSHFELD ANALYSIS
------------------

Total integrated alpha density =     32.000001694
Total integrated beta density  =     32.000001694

  ATOM     CHARGE      SPIN    
   0 O   -0.167705    0.000000
   1 O   -0.284639    0.000000
   2 N   -0.182488    0.000000
   3 C   -0.013376    0.000000
   4 C   -0.002771    0.000000
   5 C    0.044280    0.000000
   6 C   -0.032142    0.000000
   7 C    0.045286    0.000000
   8 C    0.205315    0.000000
   9 H    0.054420    0.000000
  10 H    0.046697    0.000000
  11 H    0.050701    0.000000
  12 H    0.047989    0.000000
  13 H    0.188431    0.000000

  TOTAL  -0.000003    0.000000

-------
TIMINGS
-------

Total SCF time: 0 days 0 hours 0 min 2 sec 

Total time                  ....       2.798 sec
Sum of individual times     ....       2.756 sec  ( 98.5%)

SCF preparation             ....       0.093 sec  (  3.3%)
Fock matrix formation       ....       2.259 sec  ( 80.7%)
  Startup                   ....       0.008 sec  (  0.4% of F)
  Split-RI-J                ....       0.294 sec  ( 13.0% of F)
  XC integration            ....       1.814 sec  ( 80.3% of F)
    XC Preparation          ....       0.000 sec  (  0.0% of XC)
    Basis function eval.    ....       0.487 sec  ( 26.8% of XC)
    Density eval.           ....       0.319 sec  ( 17.6% of XC)
    XC-Functional eval.     ....       0.081 sec  (  4.5% of XC)
    XC-Potential eval.      ....       0.350 sec  ( 19.3% of XC)
Diagonalization             ....       0.000 sec  (  0.0%)
Density matrix formation    ....       0.023 sec  (  0.8%)
Total Energy calculation    ....       0.016 sec  (  0.6%)
Population analysis         ....       0.163 sec  (  5.8%)
Orbital Transformation      ....       0.018 sec  (  0.6%)
Orbital Orthonormalization  ....       0.000 sec  (  0.0%)
DIIS solution               ....       0.135 sec  (  4.8%)
SOSCF solution              ....       0.049 sec  (  1.7%)
Finished LeanSCF after   2.8 sec

Maximum memory used throughout the entire LEANSCF-calculation: 25.2 MB


           ************************************************************
           *        Program running with 16 parallel MPI-processes    *
           *              working on a common directory               *
           ************************************************************

------------------------------------------------------------------------------
                         ORCA PROPERTY INTEGRAL CALCULATIONS
------------------------------------------------------------------------------

GBWName                                   ... m1_00_Vitamin_B3-GFN2_0-B97-3C-TZ.gbw
Number of atoms                           ...     14
Number of basis functions                 ...    196
Max core memory                           ...   6000 MB

Dipole integrals                          ... YES
Quadrupole integrals                      ...  NO
Linear momentum integrals                 ...  NO
Angular momentum integrals                ...  NO
Higher moments length integrals           ...  NO
Higher moments velocity integrals         ...  NO
Kinetic energy integrals                  ...  NO
GIAO right hand sides                     ...  NO
GIAO dipole derivative integrals          ...  NO
SOC integrals                             ...  NO
EPR diamagnetic integrals (GIAO)          ...  NO
EPR gauge integrals                       ...  NO
Field gradient integrals                  ...  NO (   0 nuclei)
Spin-dipole/Fermi contact integrals       ...  NO (   0 nuclei)
Contact density integrals                 ...  NO (   0 nuclei)
Nucleus-orbit integrals                   ...  NO (   0 nuclei)
Geometric perturbations                   ...  NO (  14 nuclei)

Choice of electric origin   ... Center of mass
Position of electric origin ... ( -0.1871, -0.0391, -0.0510) 
Choice of magnetic origin   ... GIAO
Position of magnetic origin ... (  0.0000,  0.0000,  0.0000) 

Calculating integrals                     ... Electric Dipole (Length)     done (  0.0 sec)

Property integrals calculated in   0.0 sec

Maximum memory used throughout the entire PROPINT-calculation: 10.1 MB


-------------------------------------------------------------------------------
                          DFT DISPERSION CORRECTION                            
                                                                               
                              DFTD3 V3.1  Rev 1                                
                          USING Becke-Johnson damping                          
-------------------------------------------------------------------------------
The B97-3c composite method is recognized
Using three-body term ABC
Active option DFTDOPT                   ...         4   

molecular C6(AA) [au] = 2487.980994 


            DFT-D V3
 parameters
 s6 scaling factor         :     1.0000 
 a1 scaling factor         :     0.3700 
 s8 scaling factor         :     1.5000 
 a2 scaling factor         :     4.1000 
 Damping factor alpha9(ATM):    16.0000 
 ad hoc parameters k1-k3   :    16.0000     1.3333    -4.0000 

 Edisp/kcal,au: -20.766528953605  -0.033093566865 
 E6   /kcal   : -10.251494430 
 E8   /kcal   : -10.518008372 
 E6(ABC)      :   0.002973849 
 % E8         :  50.648851312 
 % E6(ABC)    :  -0.014320396 

-------------------------   ----------------
Dispersion correction           -0.033093567
-------------------------   ----------------

------------------   -----------------
SRB correction            -0.048857627
------------------   -----------------

-------------------------   --------------------
FINAL SINGLE POINT ENERGY      -436.663296680160
-------------------------   --------------------



           ************************************************************
           *        Program running with 16 parallel MPI-processes    *
           *              working on a common directory               *
           ************************************************************
------------------------------------------------------------------------------
                         ORCA SCF GRADIENT CALCULATION
------------------------------------------------------------------------------

Nuc. rep. gradient        (SHARK) ... done (  0.0 sec)
HCore & Overlap gradient  (SHARK) ... done (  0.0 sec)
Split-RIJ-J gradient      (SHARK) ... done (  0.1 sec)
XC gradient                       ... done (  0.7 sec)
Dispersion correction             ... done (  0.0 sec)

-------------------
DISPERSION GRADIENT
-------------------

   1   O   :   -0.000620124   -0.000259559    0.000029612
   2   O   :   -0.000702597    0.000292939   -0.000052576
   3   N   :    0.000550652   -0.000692820    0.000108966
   4   C   :   -0.000330056    0.000002901   -0.000004991
   5   C   :    0.000107878    0.000819787   -0.000118570
   6   C   :    0.000200917   -0.000832833    0.000124620
   7   C   :    0.000588391    0.000595451   -0.000079097
   8   C   :    0.000836895   -0.000081526    0.000023441
   9   C   :   -0.000974616    0.000018686   -0.000016071
  10   H   :   -0.000056966    0.000509475   -0.000075371
  11   H   :    0.000025289   -0.000534219    0.000078512
  12   H   :    0.000251866    0.000371626   -0.000050948
  13   H   :    0.000439665   -0.000069551    0.000016218
  14   H   :   -0.000317194   -0.000140357    0.000016253

Difference to translation invariance:
           :    0.0000000000   -0.0000000000    0.0000000000

Difference to rotation invariance:
           :    0.0000000000   -0.0000000000    0.0000000000

Norm of the Dispersion gradient    ...    0.0026144289
RMS gradient                       ...    0.0004034151
MAX gradient                       ...    0.0009746164
SRB correction                   ... done

------------------
CARTESIAN GRADIENT
------------------

   1   O   :   -0.000192805    0.017366556   -0.002548169
   2   O   :    0.005980017   -0.012254382    0.001878875
   3   N   :   -0.007607072    0.011240885   -0.001751897
   4   C   :    0.000557313    0.000745307   -0.000100469
   5   C   :    0.000704457    0.002607224   -0.000381629
   6   C   :    0.008761617   -0.002243913    0.000448248
   7   C   :    0.002360958    0.001082422   -0.000126551
   8   C   :   -0.003348079   -0.007117701    0.001009423
   9   C   :   -0.003628460   -0.001856538    0.000223058
  10   H   :    0.000024701   -0.000361924    0.000056285
  11   H   :    0.001351441   -0.000254865    0.000055442
  12   H   :   -0.000887116   -0.001162849    0.000157448
  13   H   :   -0.001563121   -0.001914990    0.000253478
  14   H   :   -0.002513854   -0.005875231    0.000826457

Difference to translation invariance:
           :   -0.0000000000    0.0000000000    0.0000000000

Difference to rotation invariance:
           :   -0.0000039112   -0.0000096539   -0.0000543761

Norm of the Cartesian gradient     ...    0.0302225600
RMS gradient                       ...    0.0046634423
MAX gradient                       ...    0.0173665557

-------
TIMINGS
-------

Total SCF gradient time     ....        0.859 sec

Densities                   ....       0.001 sec  (  0.1%)
One electron gradient       ....       0.016 sec  (  1.8%)
RI-J Coulomb gradient       ....       0.065 sec  (  7.5%)
XC gradient                 ....       0.720 sec  ( 83.7%)

Maximum memory used throughout the entire SCFGRAD-calculation: 31.2 MB
------------------------------------------------------------------------------
                         ORCA GEOMETRY RELAXATION STEP
------------------------------------------------------------------------------

Reading the OPT-File                    .... done
Getting information on internals        .... done
Copying old internal coords+grads       .... done
Making the new internal coordinates     .... (2022 redundants) done
Validating the new internal coordinates .... (2022 redundants) done
Calculating the B-matrix                .... done
Calculating the G,G- and P matrices     .... done
Transforming gradient to internals      .... done
Projecting the internal gradient        .... done
Number of atoms                         ....  14
Number of internal coordinates          ....  60
Current Energy                          ....  -436.663296680 Eh
Current gradient norm                   ....     0.030222560 Eh/bohr
Maximum allowed component of the step   ....  0.300
Current trust radius                    ....  0.300
Evaluating the initial hessian          ....  (Almloef) done
Projecting the Hessian                  .... done
Forming the augmented Hessian           .... done
Diagonalizing the augmented Hessian     .... done
Last element of RFO vector              ....  0.998892821
Lowest eigenvalues of augmented Hessian:
 -0.001198854  0.013713869  0.020145488  0.022347961  0.026565546
Length of the computed step             ....  0.047096076
The final length of the internal step   ....  0.047096076
Converting the step to Cartesian space:
 Initial RMS(Int)=    0.0060800773
Transforming coordinates:
 Iter   0:  RMS(Cart)=    0.0108936262 RMS(Int)=    1.4049590550
done
Storing new coordinates                 .... done

                                .--------------------.
          ----------------------|Geometry convergence|-------------------------
          Item                value                   Tolerance       Converged
          ---------------------------------------------------------------------
          RMS gradient        0.0035234569            0.0000300000      NO
          MAX gradient        0.0136375887            0.0001000000      NO
          RMS step            0.0060800773            0.0020000000      NO
          MAX step            0.0299076547            0.0040000000      NO
          ........................................................
          Max(Bonds)      0.0089      Max(Angles)    1.71
          Max(Dihed)        0.01      Max(Improp)    0.00
          ---------------------------------------------------------------------

The optimization has not yet converged - more geometry cycles are needed


    ---------------------------------------------------------------------------
                         Redundant Internal Coordinates
                            (Angstroem and degrees)

        Definition                    Value    dE/dq     Step     New-Value
    ----------------------------------------------------------------------------
     1. B(C   4,C   3)                1.3945  0.002582 -0.0026    1.3919   
     2. B(C   5,N   2)                1.3185 -0.011796  0.0089    1.3274   
     3. B(C   5,C   3)                1.3950 -0.000641  0.0006    1.3956   
     4. B(C   6,C   4)                1.3825  0.000705 -0.0009    1.3816   
     5. B(C   7,C   6)                1.3890 -0.000319  0.0003    1.3892   
     6. B(C   7,N   2)                1.3228 -0.009946  0.0076    1.3304   
     7. B(C   8,O   0)                1.3400 -0.009504  0.0075    1.3475   
     8. B(C   8,C   3)                1.4802  0.000317 -0.0004    1.4799   
     9. B(C   8,O   1)                1.2052 -0.013638  0.0065    1.2118   
    10. B(H   9,C   4)                1.0801 -0.000327  0.0005    1.0806   
    11. B(H  10,C   5)                1.0811 -0.000393  0.0006    1.0816   
    12. B(H  11,C   6)                1.0787 -0.001466  0.0021    1.0808   
    13. B(H  12,C   7)                1.0822 -0.001414  0.0020    1.0842   
    14. B(H  13,O   0)                0.9702  0.002071 -0.0022    0.9680   
    15. A(C   8,O   0,H  13)          109.85  0.011189   -1.71    108.14   
    16. A(C   5,N   2,C   7)          118.43  0.005088   -0.51    117.91   
    17. A(C   4,C   3,C   5)          118.21 -0.000641    0.02    118.23   
    18. A(C   5,C   3,C   8)          122.52 -0.001991    0.31    122.84   
    19. A(C   4,C   3,C   8)          119.26  0.002633   -0.33    118.93   
    20. A(C   3,C   4,H   9)          119.21  0.000839   -0.05    119.16   
    21. A(C   3,C   4,C   6)          118.69 -0.002018    0.15    118.84   
    22. A(C   6,C   4,H   9)          122.10  0.001179   -0.10    122.00   
    23. A(C   3,C   5,H  10)          120.79  0.001788   -0.30    120.49   
    24. A(N   2,C   5,H  10)          116.23 -0.000908    0.13    116.36   
    25. A(N   2,C   5,C   3)          122.98 -0.000880    0.17    123.14   
    26. A(C   4,C   6,C   7)          118.16 -0.002044    0.21    118.37   
    27. A(C   7,C   6,H  11)          120.70  0.001143   -0.12    120.58   
    28. A(C   4,C   6,H  11)          121.13  0.000901   -0.08    121.05   
    29. A(N   2,C   7,C   6)          123.53  0.000495   -0.03    123.50   
    30. A(C   6,C   7,H  12)          121.10  0.001841   -0.32    120.78   
    31. A(N   2,C   7,H  12)          115.37 -0.002336    0.35    115.72   
    32. A(O   0,C   8,O   1)          122.38 -0.003774    0.47    122.85   
    33. A(O   1,C   8,C   3)          124.36  0.000485   -0.04    124.33   
    34. A(O   0,C   8,C   3)          113.26  0.003290   -0.43    112.83   
    35. D(H   9,C   4,C   3,C   5)   -180.00  0.000001   -0.00   -180.00   
    36. D(C   6,C   4,C   3,C   8)    179.99 -0.000002    0.00    180.00   
    37. D(H   9,C   4,C   3,C   8)      0.00  0.000001   -0.00     -0.00   
    38. D(C   6,C   4,C   3,C   5)     -0.01 -0.000002    0.00     -0.00   
    39. D(N   2,C   5,C   3,C   8)   -180.00  0.000001   -0.00   -180.00   
    40. D(N   2,C   5,C   3,C   4)      0.00  0.000002   -0.00      0.00   
    41. D(C   3,C   5,N   2,C   7)      0.00  0.000001   -0.00      0.00   
    42. D(H  10,C   5,N   2,C   7)   -180.00  0.000001   -0.00   -180.00   
    43. D(H  10,C   5,C   3,C   4)   -180.00  0.000001   -0.00   -180.00   
    44. D(H  10,C   5,C   3,C   8)      0.01  0.000001   -0.00      0.00   
    45. D(H  11,C   6,C   4,H   9)     -0.01 -0.000002    0.00     -0.00   
    46. D(C   7,C   6,C   4,H   9)    179.99 -0.000002    0.00    180.00   
    47. D(C   7,C   6,C   4,C   3)      0.00  0.000000   -0.00      0.00   
    48. D(H  11,C   6,C   4,C   3)   -180.00  0.000000   -0.00   -180.00   
    49. D(C   6,C   7,N   2,C   5)     -0.01 -0.000003    0.00     -0.00   
    50. D(H  12,C   7,C   6,H  11)     -0.01 -0.000004    0.01      0.00   
    51. D(H  12,C   7,C   6,C   4)    179.99 -0.000004    0.01    180.00   
    52. D(N   2,C   7,C   6,H  11)   -180.00  0.000002   -0.00   -180.00   
    53. D(N   2,C   7,C   6,C   4)      0.00  0.000002   -0.00      0.00   
    54. D(H  12,C   7,N   2,C   5)   -180.00  0.000002   -0.01   -180.00   
    55. D(O   1,C   8,C   3,C   5)   -179.99 -0.000000    0.00   -179.99   
    56. D(O   1,C   8,C   3,C   4)      0.01 -0.000000    0.00      0.01   
    57. D(O   0,C   8,C   3,C   5)      0.01 -0.000000    0.00      0.01   
    58. D(O   0,C   8,C   3,C   4)   -179.99 -0.000000    0.00   -179.99   
    59. D(C   3,C   8,O   0,H  13)   -180.00  0.000000   -0.00   -180.00   
    60. D(O   1,C   8,O   0,H  13)      0.00  0.000001   -0.00      0.00   
    ----------------------------------------------------------------------------

Geometry step timings:
Preparation and reading OPT file:      0.000 s (10.901 %)
Internal coordinates            :      0.000 s ( 1.672 %)
B/P matrices and projection     :      0.000 s (26.599 %)
Hessian update/contruction      :      0.000 s (13.154 %)
Making the step                 :      0.000 s (18.532 %)
Converting the step to Cartesian:      0.000 s ( 2.689 %)
Storing new data                :      0.000 s ( 1.381 %)
Checking convergence            :      0.000 s ( 0.145 %)
Final printing                  :      0.000 s (24.782 %)
Total time                      :      0.001 s

Time for energy+gradient        :      5.948 s
Time for complete geometry iter :      6.108 s

         *************************************************************
         *                GEOMETRY OPTIMIZATION CYCLE   2            *
         *************************************************************
---------------------------------
CARTESIAN COORDINATES (ANGSTROEM)
---------------------------------
  O     -2.310692   -1.179250    0.112604
  O     -2.428475    1.042066   -0.214703
  N      1.776203   -1.186676    0.169340
  C     -0.284941    0.015552   -0.034891
  C      0.411445    1.209394   -0.200122
  C      0.449327   -1.157295    0.146855
  C      1.792618    1.183917   -0.177450
  C      2.427393   -0.037498    0.010058
  C     -1.764403    0.040532   -0.058781
  H     -0.142047    2.126534   -0.341959
  H     -0.054372   -2.105337    0.278712
  H      2.368953    2.089646   -0.302133
  H      3.509401   -0.102523    0.034435
  H     -3.273663   -1.084631    0.085543

----------------------------
CARTESIAN COORDINATES (A.U.)
----------------------------
  NO LB      ZA    FRAG     MASS         X           Y           Z
   0 O     8.0000    0    15.999   -4.366575   -2.228460    0.212792
   1 O     8.0000    0    15.999   -4.589152    1.969220   -0.405730
   2 N     7.0000    0    14.007    3.356537   -2.242493    0.320006
   3 C     6.0000    0    12.011   -0.538460    0.029389   -0.065935
   4 C     6.0000    0    12.011    0.777519    2.285423   -0.378176
   5 C     6.0000    0    12.011    0.849105   -2.186971    0.277516
   6 C     6.0000    0    12.011    3.387557    2.237279   -0.335332
   7 C     6.0000    0    12.011    4.587107   -0.070861    0.019008
   8 C     6.0000    0    12.011   -3.334238    0.076594   -0.111080
   9 H     1.0000    0     1.008   -0.268430    4.018566   -0.646209
  10 H     1.0000    0     1.008   -0.102749   -3.978511    0.526689
  11 H     1.0000    0     1.008    4.476673    3.948860   -0.570949
  12 H     1.0000    0     1.008    6.631806   -0.193741    0.065073
  13 H     1.0000    0     1.008   -6.186327   -2.049655    0.161653

--------------------------------
INTERNAL COORDINATES (ANGSTROEM)
--------------------------------
 O      0   0   0     0.000000000000     0.00000000     0.00000000
 O      1   0   0     2.248388228023     0.00000000     0.00000000
 N      1   2   0     4.087295302270    93.22149375     0.00000000
 C      1   2   3     2.356474708156    62.28958947     0.00000000
 C      4   1   2     1.391945928175   150.73638239     0.02462089
 C      3   1   2     1.327391824062     1.17735864   359.77112880
 C      5   4   1     1.381593538080   118.84101356   179.98247699
 C      3   1   2     1.330424362284   119.08986401     0.00000000
 C      2   1   3     1.211764834454    30.23161192     0.00000000
 H      5   4   1     1.080563133381   119.16199128     0.00000000
 H      6   3   8     1.081611087392   116.36234910   179.99966023
 H      7   5   4     1.080765565847   121.04805189   180.00086308
 H      8   3   1     1.084234450049   115.71914554   179.99251523
 H      1   2   3     0.967987392838    81.21337805   180.00449706

---------------------------
INTERNAL COORDINATES (A.U.)
---------------------------
 O      0   0   0     0.000000000000     0.00000000     0.00000000
 O      1   0   0     4.248837993695     0.00000000     0.00000000
 N      1   2   0     7.723868749754    93.22149375     0.00000000
 C      1   2   3     4.453091839927    62.28958947     0.00000000
 C      4   1   2     2.630396597478   150.73638239     0.02462089
 C      3   1   2     2.508407019883     1.17735864   359.77112880
 C      5   4   1     2.610833415367   118.84101356   179.98247699
 C      3   1   2     2.514137686613   119.08986401     0.00000000
 C      2   1   3     2.289903675834    30.23161192     0.00000000
 H      5   4   1     2.041968392502   119.16199128     0.00000000
 H      6   3   8     2.043948738584   116.36234910   179.99966023
 H      7   5   4     2.042350934424   121.04805189   180.00086308
 H      8   3   1     2.048906175556   115.71914554   179.99251523
 H      1   2   3     1.829231073553    81.21337805   180.00449706



           ************************************************************
           *        Program running with 16 parallel MPI-processes    *
           *              working on a common directory               *
           ************************************************************
------------------------------------------------------------------------------
                   ___                                                        
                  /   \      - P O W E R E D   B Y -                         
                 /     \                                                     
                 |  |  |   _    _      __       _____    __    __             
                 |  |  |  | |  | |    /  \     |  _  \  |  |  /  |          
                  \  \/   | |  | |   /    \    | | | |  |  | /  /          
                 / \  \   | |__| |  /  /\  \   | |_| |  |  |/  /          
                |  |  |   |  __  | /  /__\  \  |    /   |      \           
                |  |  |   | |  | | |   __   |  |    \   |  |\   \          
                \     /   | |  | | |  |  |  |  | |\  \  |  | \   \       
                 \___/    |_|  |_| |__|  |__|  |_| \__\ |__|  \__/        
                                                                              
                      - O R C A' S   B I G   F R I E N D -                    
                                      &                                       
                       - I N T E G R A L  F E E D E R -                       
                                                                              
 v1 FN, 2020, v2 2021, v3 2022-2024                                           
------------------------------------------------------------------------------


----------------------
SHARK INTEGRAL PACKAGE
----------------------

Number of atoms                             ...     14
Number of basis functions                   ...    196
Number of shells                            ...     98
Maximum angular momentum                    ...      2
Integral batch strategy                     ... SHARK/LIBINT Hybrid
RI-J (if used) integral strategy            ... SPLIT-RIJ (Revised 2003 algorithm where possible)
Printlevel                                  ...      1
Contraction scheme used                     ... SEGMENTED contraction
Prescreening option                         ... SCHWARTZ
   Thresh                                   ... 2.500e-11
   Tcut                                     ... 2.500e-12
   Tpresel                                  ... 2.500e-12 
Coulomb Range Separation                    ... NOT USED
Exchange Range Separation                   ... NOT USED
Multipole approximations                    ... NOT USED
Finite Nucleus Model                        ... NOT USED
CABS basis                                  ... NOT available
Auxiliary Coulomb fitting basis             ... AVAILABLE
   # of basis functions in Aux-J            ...    300
   # of shells in Aux-J                     ...    128
   Maximum angular momentum in Aux-J        ...      2
Auxiliary J/K fitting basis                 ... NOT available
Auxiliary Correlation fitting basis         ... NOT available
Auxiliary 'external' fitting basis          ... NOT available

Checking pre-screening integrals            ... done (  0.0 sec) Dimension = 98
Check shell pair data                       ... done (  0.0 sec)
Shell pair information
Shell pair cut-off parameter TPreSel        ...   2.5e-12
Total number of shell pairs                 ...      4851
Shell pairs after pre-screening             ...      4400
Total number of primitive shell pairs       ...     18168
Primitive shell pairs kept                  ...     11706
          la=0 lb=0:   1555 shell pairs
          la=1 lb=0:   1526 shell pairs
          la=1 lb=1:    372 shell pairs
          la=2 lb=0:    597 shell pairs
          la=2 lb=1:    288 shell pairs
          la=2 lb=2:     62 shell pairs

Calculating one electron integrals          ... done (  0.0 sec)
Calculating RI/J V-Matrix + Cholesky decomp.... done (  0.0 sec)
Calculating Nuclear repulsion               ... done (  0.0 sec) ENN=    409.674833027772 Eh

Diagonalization of the overlap matrix:
Smallest eigenvalue                        ... 4.830e-05
Time for diagonalization                   ...    0.003 sec
Threshold for overlap eigenvalues          ... 1.000e-07
Number of eigenvalues below threshold      ... 0
Time for construction of square roots      ...    0.001 sec
Total time needed                          ...    0.004 sec

-------------------
DFT GRID GENERATION
-------------------

General Integration Accuracy     IntAcc      ... 4.959
Radial Grid Type                 RadialGrid  ... OptM3 with GC (2021)
Angular Grid (max. ang.)         AngularGrid ... 6 (Lebedev-590)
[...]
     24       0.038618   0.207995  -0.019493  -0.045227   0.052004  -0.036996
     25       0.034254   0.184642  -0.003313  -0.031255  -0.010465  -0.001420
     26      -0.004491  -0.024249   0.000207   0.003966   0.002260  -0.000295
     27       0.434099   0.001914  -0.281868   0.232149  -0.297331   0.424281
     28       0.283776  -0.011948  -0.226809   0.011379  -0.004643   0.337108
     29      -0.035598   0.001745   0.029318   0.001502  -0.003366  -0.043521
     30      -0.565370   0.355878  -0.334341   0.512403   0.323841   0.382651
     31       0.322255  -0.174818   0.021154  -0.263725  -0.055848  -0.236564
     32      -0.054833   0.030571  -0.007525   0.045606   0.012510   0.039767
     33       0.311771   0.112937  -0.081594   0.467475  -0.357472  -0.136626
     34      -0.152039  -0.036721  -0.045297  -0.339903   0.047685   0.244619
     35       0.026532   0.006940   0.005512   0.056195  -0.011876  -0.037703
     36      -0.008751  -0.000581  -0.133260   0.071223  -0.113502  -0.098010
     37      -0.376306  -0.017717  -0.781042  -0.398404  -0.541335   0.121328
     38       0.054959   0.002586   0.112501   0.059289   0.077696  -0.019097
     39      -0.015320  -0.173652  -0.001641   0.005561  -0.001098   0.002184
     40      -0.081253  -0.817912   0.000121   0.042808  -0.030779   0.042295
     41       0.011680   0.117391  -0.000045  -0.006184   0.004498  -0.006148
                 36         37         38         39         40         41    
      0      -0.033697  -0.000024   0.000235  -0.000122   0.000215   0.060909
      1       0.063662   0.000002  -0.000397   0.000148   0.000027  -0.006999
      2      -0.009789  -0.000000   0.000060  -0.000023  -0.000001   0.001869
      3      -0.242145  -0.000040  -0.000213   0.000139   0.000046  -0.000030
      4       0.345170   0.000033  -0.000083   0.000236  -0.000531  -0.000765
      5      -0.053985  -0.000005   0.000010  -0.000033   0.000078   0.000112
      6       0.022854  -0.000188   0.000197  -0.000620  -0.000240   0.000034
      7       0.014804  -0.000959  -0.000577   0.000071  -0.000076  -0.000024
      8      -0.001854   0.000138   0.000086  -0.000019   0.000008   0.000004
      9      -0.059216  -0.000027   0.001703  -0.000098  -0.001596  -0.000800
     10       0.090360  -0.000109  -0.002369   0.000737  -0.002009  -0.000027
     11      -0.014042   0.000016   0.000370  -0.000109   0.000272  -0.000007
     12      -0.017392   0.000998   0.001138   0.014629  -0.041913   0.000121
     13      -0.043255  -0.001070  -0.004945  -0.029118   0.068367  -0.000032
     14       0.006097   0.000170   0.000741   0.004463  -0.010582   0.000006
     15      -0.018871  -0.000139   0.035821  -0.010719  -0.001661  -0.000170
     16      -0.022624  -0.002801   0.074684  -0.021105  -0.004888  -0.000050
     17       0.003052   0.000408  -0.010446   0.002944   0.000693   0.000005
     18       0.007672   0.010309   0.012592   0.038484   0.021435  -0.000065
     19       0.019702   0.011094   0.019941   0.063598   0.028507   0.000111
     20      -0.002780  -0.001483  -0.002747  -0.008786  -0.003881  -0.000017
     21      -0.005492  -0.084491   0.000528   0.017892   0.006134  -0.000004
     22      -0.021504   0.007494  -0.001802  -0.003261  -0.002201  -0.000039
     23       0.003073  -0.002252   0.000271   0.000722   0.000406   0.000006
     24       0.433489   0.000032   0.000601  -0.000020  -0.000822   0.003014
     25      -0.537611  -0.000004   0.001123  -0.000671   0.000902   0.000855
     26       0.084829   0.000001  -0.000156   0.000098  -0.000144  -0.000084
     27       0.074661  -0.010318  -0.028521  -0.196731   0.462283  -0.000123
     28      -0.008735   0.016464   0.051497   0.337898  -0.778943   0.000611
     29       0.002289  -0.002553  -0.007932  -0.052162   0.120361  -0.000091
     30      -0.019159   0.019508  -0.440050   0.124054   0.024485  -0.000163
     31      -0.031330   0.037276  -0.841293   0.236432   0.048344   0.000395
     32       0.004373  -0.005196   0.117207  -0.032929  -0.006743  -0.000062
     33       0.049165  -0.106564  -0.144820  -0.453959  -0.209263  -0.000106
     34      -0.006498  -0.157482  -0.227145  -0.717641  -0.323894  -0.000340
     35       0.001637   0.021601   0.031277   0.098868   0.044564   0.000049
     36      -0.000249   0.974654  -0.013724  -0.182590  -0.058651  -0.000126
     37       0.024010  -0.057695   0.002050   0.014738   0.006099  -0.000013
     38      -0.003515   0.021768  -0.000489  -0.004653  -0.001695   0.000000
     39      -0.097419  -0.000023  -0.000147   0.000638  -0.000149  -0.991211
     40      -0.536380   0.000178  -0.001752   0.000195   0.000766   0.113175
     41       0.077222  -0.000027   0.000251  -0.000019  -0.000114  -0.030310


-----------
IR SPECTRUM
-----------

 Mode   freq       eps      Int      T**2         TX        TY        TZ
       cm**-1   L/(mol*cm) km/mol    a.u.
----------------------------------------------------------------------------
  6:     56.23   0.000669    3.38  0.003713  (-0.000782  0.008854  0.060282)
  7:    149.95   0.000004    0.02  0.000008  (-0.000055  0.000405  0.002840)
  8:    214.52   0.000708    3.58  0.001030  (-0.032087 -0.000457 -0.000353)
  9:    363.41   0.000845    4.27  0.000726  ( 0.000371 -0.003886 -0.026657)
 10:    383.47   0.001017    5.14  0.000828  ( 0.023840  0.015985 -0.002029)
 11:    414.38   0.000028    0.14  0.000021  ( 0.000059 -0.000686 -0.004555)
 12:    489.35   0.001909    9.65  0.001218  (-0.014414 -0.031471  0.004406)
 13:    595.36   0.015283   77.24  0.008011  ( 0.001226 -0.012961 -0.088552)
 14:    622.99   0.002446   12.36  0.001225  (-0.022614 -0.026478  0.003604)
 15:    652.65   0.006666   33.69  0.003187  (-0.054430 -0.014923  0.001347)
 16:    699.55   0.002726   13.77  0.001216  (-0.000450  0.005055  0.034499)
 17:    741.01   0.013523   68.34  0.005695  (-0.001060  0.010941  0.074661)
 18:    783.98   0.001465    7.40  0.000583  ( 0.024096 -0.001477  0.000464)
 19:    824.73   0.000596    3.01  0.000225  (-0.000191  0.002152  0.014860)
 20:    930.83   0.000058    0.29  0.000020  (-0.000048  0.000636  0.004376)
 21:    963.48   0.000169    0.85  0.000055  (-0.000096  0.001059  0.007313)
 22:    977.96   0.000092    0.46  0.000029  (-0.000084  0.000767  0.005352)
 23:   1033.88   0.002940   14.86  0.000887  ( 0.028971 -0.006798  0.001367)
 24:   1048.80   0.000949    4.79  0.000282  ( 0.007575  0.014850 -0.002083)
 25:   1102.20   0.034730  175.51  0.009833  (-0.068611 -0.070963  0.009468)
 26:   1127.12   0.002706   13.68  0.000749  (-0.015718 -0.022204  0.003033)
 27:   1201.92   0.024981  126.24  0.006486  (-0.058790 -0.054571  0.007188)
 28:   1222.74   0.010689   54.02  0.002728  ( 0.050890  0.011714 -0.001027)
 29:   1307.56   0.000058    0.30  0.000014  (-0.001031  0.003551 -0.000530)
 30:   1358.87   0.003110   15.71  0.000714  ( 0.020174  0.017377 -0.002268)
 31:   1372.21   0.013639   68.92  0.003102  ( 0.052346  0.018903 -0.002057)
 32:   1441.00   0.007113   35.95  0.001540  (-0.034925 -0.017780  0.002127)
 33:   1503.33   0.000563    2.84  0.000117  ( 0.001157 -0.010629  0.001580)
 34:   1593.45   0.001523    7.70  0.000298  ( 0.000929  0.017066 -0.002482)
 35:   1618.81   0.010666   53.90  0.002056  (-0.045125  0.004281 -0.001243)
 36:   1760.83   0.063332  320.05  0.011224  ( 0.060754 -0.085752  0.013402)
 37:   3110.90   0.004654   23.52  0.000467  (-0.021568 -0.001286 -0.000106)
 38:   3144.76   0.002719   13.74  0.000270  ( 0.010975  0.012112 -0.001622)
 39:   3148.15   0.001729    8.74  0.000171  ( 0.011181  0.006755 -0.000835)
 40:   3164.00   0.001362    6.88  0.000134  ( 0.006306  0.009633 -0.001323)
 41:   3686.38   0.012580   63.58  0.001065  (-0.031904 -0.006840  0.000560)

* The epsilon (eps) is given for a Dirac delta lineshape.
** The dipole moment derivative (T) already includes vibrational overlap.

The first frequency considered to be a vibration is 6
The total number of vibrations considered is 36


--------------------------
THERMOCHEMISTRY AT 298.15K
--------------------------

Temperature         ...   298.15 K
Pressure            ...     1.00 atm
Total Mass          ...   123.11 AMU
Quasi RRHO          ...     True
Cut-Off Frequency   ...     1.00 cm^-1

Throughout the following assumptions are being made:
  (1) The electronic state is orbitally nondegenerate
  (2) There are no thermally accessible electronically excited states
  (3) Hindered rotations indicated by low frequency modes are not
      treated as such but are treated as vibrations and this may
      cause some error
  (4) All equations used are the standard statistical mechanics
      equations for an ideal gas
  (5) All vibrations are strictly harmonic

freq.      56.23  E(vib)   ...       0.52 
freq.     149.95  E(vib)   ...       0.40 
freq.     214.52  E(vib)   ...       0.34 
freq.     363.41  E(vib)   ...       0.22 
freq.     383.47  E(vib)   ...       0.20 
freq.     414.38  E(vib)   ...       0.19 
freq.     489.35  E(vib)   ...       0.15 
freq.     595.36  E(vib)   ...       0.10 
freq.     622.99  E(vib)   ...       0.09 
freq.     652.65  E(vib)   ...       0.08 
freq.     699.55  E(vib)   ...       0.07 
freq.     741.01  E(vib)   ...       0.06 
freq.     783.98  E(vib)   ...       0.05 
freq.     824.73  E(vib)   ...       0.04 
freq.     930.83  E(vib)   ...       0.03 
freq.     963.48  E(vib)   ...       0.03 
freq.     977.96  E(vib)   ...       0.03 
freq.    1033.88  E(vib)   ...       0.02 
freq.    1048.80  E(vib)   ...       0.02 
freq.    1102.20  E(vib)   ...       0.02 
freq.    1127.12  E(vib)   ...       0.01 
freq.    1201.92  E(vib)   ...       0.01 
freq.    1222.74  E(vib)   ...       0.01 
freq.    1307.56  E(vib)   ...       0.01 
freq.    1358.87  E(vib)   ...       0.01 
freq.    1372.21  E(vib)   ...       0.01 
freq.    1441.00  E(vib)   ...       0.00 
freq.    1503.33  E(vib)   ...       0.00 
freq.    1593.45  E(vib)   ...       0.00 
freq.    1618.81  E(vib)   ...       0.00 
freq.    1760.83  E(vib)   ...       0.00 
freq.    3110.90  E(vib)   ...       0.00 
freq.    3144.76  E(vib)   ...       0.00 
freq.    3148.15  E(vib)   ...       0.00 
freq.    3164.00  E(vib)   ...       0.00 
freq.    3686.38  E(vib)   ...       0.00 

------------
INNER ENERGY
------------

The inner energy is: U= E(el) + E(ZPE) + E(vib) + E(rot) + E(trans)
    E(el)   - is the total energy from the electronic structure calculation
              = E(kin-el) + E(nuc-el) + E(el-el) + E(nuc-nuc)
    E(ZPE)  - the the zero temperature vibrational energy from the frequency calculation
    E(vib)  - the the finite temperature correction to E(ZPE) due to population
              of excited vibrational states
    E(rot)  - is the rotational thermal energy
    E(trans)- is the translational thermal energy

Summary of contributions to the inner energy U:
Electronic energy                ...   -436.66433113 Eh
Zero point energy                ...      0.10208642 Eh      64.06 kcal/mol
Thermal vibrational correction   ...      0.00433181 Eh       2.72 kcal/mol
Thermal rotational correction    ...      0.00141627 Eh       0.89 kcal/mol
Thermal translational correction ...      0.00141627 Eh       0.89 kcal/mol
-----------------------------------------------------------------------
Total thermal energy                   -436.55508036 Eh


Summary of corrections to the electronic energy:
(perhaps to be used in another calculation)
Total thermal correction                  0.00716435 Eh       4.50 kcal/mol
Non-thermal (ZPE) correction              0.10208642 Eh      64.06 kcal/mol
-----------------------------------------------------------------------
Total correction                          0.10925077 Eh      68.56 kcal/mol


--------
ENTHALPY
--------

The enthalpy is H = U + kB*T
                kB is Boltzmann's constant
Total thermal energy              ...   -436.55508036 Eh 
Thermal Enthalpy correction       ...      0.00094421 Eh       0.59 kcal/mol
-----------------------------------------------------------------------
Total Enthalpy                    ...   -436.55413615 Eh


Note: Only C1 symmetry has been detected, increase convergence thresholds 
      if your molecule has a higher symmetry. Symmetry factor of 1.0 is   
      used for the rotational entropy correction. 
 

Note: Rotational entropy computed according to Herzberg 
Infrared and Raman Spectra, Chapter V,1, Van Nostrand Reinhold, 1945 
Point Group:  C1, Symmetry Number:   1  
Rotational constants in cm-1:     0.132489     0.041671     0.031700 

Vibrational entropy computed according to the QRRHO of S. Grimme
Chem.Eur.J. 2012 18 9955 using a reference frequency of 100.0 cm-1


-------
ENTROPY
-------

The entropy contributions are T*S = T*(S(el)+S(vib)+S(rot)+S(trans))
     S(el)   - electronic entropy
     S(vib)  - vibrational entropy
     S(rot)  - rotational entropy
     S(trans)- translational entropy
The entropies will be listed as multiplied by the temperature to get
units of energy

Electronic entropy                ...      0.00000000 Eh      0.00 kcal/mol
Vibrational entropy               ...      0.00709513 Eh      4.45 kcal/mol
Rotational entropy                ...      0.01359469 Eh      8.53 kcal/mol
Translational entropy             ...      0.01916571 Eh     12.03 kcal/mol
-----------------------------------------------------------------------
Final entropy term                ...      0.03985553 Eh     25.01 kcal/mol

In case the symmetry of your molecule has not been determined correctly
or in case you have a reason to use a different symmetry number we print 
out the resulting rotational entropy values for sn=1,12:

 non-linear molecules -----------------------------------
|  sn= 1 | S(rot)=       0.01359469 Eh      8.53 kcal/mol|
|  sn= 2 | S(rot)=       0.01294024 Eh      8.12 kcal/mol|
|  sn= 3 | S(rot)=       0.01255740 Eh      7.88 kcal/mol|
|  sn= 4 | S(rot)=       0.01228578 Eh      7.71 kcal/mol|
|  sn= 5 | S(rot)=       0.01207509 Eh      7.58 kcal/mol|
|  sn= 6 | S(rot)=       0.01190295 Eh      7.47 kcal/mol|
|  sn= 7 | S(rot)=       0.01175740 Eh      7.38 kcal/mol|
|  sn= 8 | S(rot)=       0.01163132 Eh      7.30 kcal/mol|
|  sn= 9 | S(rot)=       0.01152011 Eh      7.23 kcal/mol|
|  sn=10 | S(rot)=       0.01142063 Eh      7.17 kcal/mol|
|  sn=11 | S(rot)=       0.01133064 Eh      7.11 kcal/mol|
|  sn=12 | S(rot)=       0.01124849 Eh      7.06 kcal/mol|
 linear molecules ---------------------------------------
|  Dinfh | S(rot)=       0.00858458 Eh      5.39 kcal/mol|
|  Cinfv | S(rot)=       0.00923903 Eh      5.80 kcal/mol|
 --------------------------------------------------------


-------------------
GIBBS FREE ENERGY
-------------------

The Gibbs free energy is G = H - T*S

Total enthalpy                    ...   -436.55413615 Eh 
Total entropy correction          ...     -0.03985553 Eh    -25.01 kcal/mol
-----------------------------------------------------------------------
Final Gibbs free energy         ...   -436.59399168 Eh

For completeness - the Gibbs free energy minus the electronic energy
G-E(el)                           ...      0.07033945 Eh     44.14 kcal/mol


Maximum memory used throughout the entire PROP-calculation: 44.9 MB

--------------------------------
SUGGESTED CITATIONS FOR THIS RUN
--------------------------------

Below you find a list of papers that are relevant to this ORCA run
We neither can nor want to force you to cite these papers, but we appreciate if you do
You receive ORCA, which is the product of decades of hard work by many enthusiastic individuals, for free
The only thing we kindly ask in return is that you cite our papers,
We deeply appreciate it, if you show your appreciation for ORCA by not just citing the generic ORCA reference.

Please note that relegating all ORCA citations to the supporting information does *not* help us.
SI sections are not indexed - citations you put there will not count into any citation statistics
But we need these citations in order to attract the funding resources that allow us to do what we are doing

Therefore, if you are a happy ORCA user, please consider citing a few of the papers listed below in the main body of your paper

In addition to the list printed below, the program has created the file m1_00_Vitamin_B3-GFN2_0-B97-3C-TZ.bibtex that contains the list in bibtex format
You can import this file easily into all common literature databanks and citation aid programs


List of essential papers. We consider these as the minimum necessary citations

  1. Neese,F.
     Software update: the ORCA program system, version 5.0
     WIRES Comput. Molec. Sci., 2022 12(1)e1606
     doi.org/10.1002/wcms.1606

List of papers to cite with high priority. The work reported in these papers was absolutely
necessary for this run to complete.
Our perspective: the developers of density functionals and basis sets usually get cited in chemistry papers
Good! But without the algorithms to do something with them, the functionals or basis sets would not do anything.
Hence, in our opinion, the algorithm design and method developments papers are equally worthy of getting cited

  1. Neese,F.
     An improvement of the resolution of the identity approximation for the formation of the Coulomb matrix
     J. Comp. Chem., 2003 24(14)1740-1747
     doi.org/10.1002/jcc.10318
  2. Bykov,D.; Petrenko,T.; Izsak,R.; Kossmann,S.; Becker,U.; Valeev,E.; Neese,F.
     Efficient implementation of the analytic second derivatives of Hartree-Fock and hybrid DFT energies: a detailed analysis of different approximations
     Molec. Phys., 2015 113 1961-1977
     doi.org/10.1080/00268976.2015.1025114
  3. Neese,F.
     The SHARK Integral Generation and Digestion System
     J. Comp. Chem., 2022  1-16
     doi.org/10.1002/jcc.26942
  4. Grimme,S.; Antony,J.; Ehrlich,S.; Krieg,H.
     A consistent and accurate ab initio parametrization of density functional dispersion correction (DFT-D) for the 94 elements H-Pu
     J. Chem. Phys., 2010 132 154104
     doi.org/10.1063/1.3382344
  5. Grimme,S.; Ehrlich,S.; Goerigk,L.
     Effect of the damping function in dispersion corrected density functional theory
     J. Comput. Chem., 2011 32(7)1456-1465
     doi.org/10.1002/jcc.21759

List of suggested additional citations. These are papers that are important in the 'surrounding' of 
of this run, or papers that preceded the highly important papers. If you like your results we are grateful for a citation.

  1. Neese,F.
     The ORCA program system
     WIRES Comput. Molec. Sci., 2012 2(1)73-78
     doi.org/10.1002/wcms.81
  2. Neese,F.
     Software update: the ORCA program system, version 4.0
     WIRES Comput. Molec. Sci., 2018 8(1)1-6
     doi.org/10.1002/wcms.1327
  3. Neese,F.; Wennmohs,F.; Becker,U.; Riplinger,C.
     The ORCA quantum chemistry program package
     J. Chem. Phys., 2020 152 Art. No. L224108
     doi.org/10.1063/5.0004608

List of optional additional citations

  1. Neese,F.
     Approximate second-order SCF convergence for spin unrestricted wavefunctions
     Chem. Phys. Lett., 2000 325(1-3)93-98
     doi.org/10.1016/s0009-2614(00)00662-x

Timings for individual modules:

Sum of individual times          ...       50.762 sec (=   0.846 min)
Startup calculation              ...        9.139 sec (=   0.152 min)  18.0 %
SCF iterations                   ...       11.725 sec (=   0.195 min)  23.1 %
Property integrals               ...       12.154 sec (=   0.203 min)  23.9 %
SCF Response                     ...        6.560 sec (=   0.109 min)  12.9 %
Property calculations            ...        5.875 sec (=   0.098 min)  11.6 %
SCF Gradient evaluation          ...        5.298 sec (=   0.088 min)  10.4 %
Geometry relaxation              ...        0.011 sec (=   0.000 min)   0.0 %
                             ****ORCA TERMINATED NORMALLY****
TOTAL RUN TIME: 0 days 0 hours 0 minutes 51 seconds 943 msec
