14
 energy: -26.429913168110 gnorm: 0.000017644945 xtb: 6.7.0 (08769fc)
O           -2.43719212873423       -1.07199025490729       -0.23620142312776
O           -2.33261501370129        1.07953154384193        0.27973694065054
N            1.79580284426078        1.11450456147690       -0.27418602015671
C           -0.26890051769217       -0.05175567653757        0.02861207854261
C            0.42493615677468       -1.23013790776959        0.29604281686098
C            0.47961787041353        1.09658291998698       -0.24300266380426
C            1.80923735002541       -1.20856742790565        0.26849157594369
C            2.44508697503142       -0.01026148081531       -0.02530029815302
C           -1.75721989680765        0.05492623850553        0.04448039410088
H           -0.09271599894384       -2.14538422746986        0.55698817466198
H           -0.02596584628742        2.03070467175035       -0.44600062212235
H            2.38078126280077       -2.09901854167134        0.47816154704823
H            3.52431324264139        0.05632918352265       -0.05650234304477
H           -1.85949252829181       -1.81579261244472       -0.45237008824727
