14
 energy: -26.441652143900 gnorm: 0.000028840946 xtb: 6.7.0 (08769fc)
O           -2.36527370454090       -1.13032175505777        0.09145889533530
O           -2.37665012439231        1.07760889950580       -0.22741866003184
N            1.79589975873152        1.13430281551572       -0.14817990191413
C           -0.28241180088499       -0.03514858987999       -0.02308694621328
C            0.38791566555117       -1.24213858300811        0.16508034617292
C            0.47881508743217        1.12591117099908       -0.17460143403439
C            1.77127474722647       -1.23030936745994        0.19238024961842
C            2.42496825788203       -0.01600481880525        0.03092820972459
C           -1.75837641069867        0.05630904279357       -0.06716630047068
H           -0.16972315687658       -2.15842360859720        0.28554963758981
H           -0.01218388390413        2.07832210346574       -0.32222346382306
H            2.33142542672142       -2.14115827330140        0.33551402246383
H            3.50547092850882        0.04298665279305        0.04510762399341
H           -3.32746303349371       -1.01360485962482        0.05446735535191
