
                                 *****************
                                 * O   R   C   A *
                                 *****************

                                            #,                                       
                                            ###                                      
                                            ####                                     
                                            #####                                    
                                            ######                                   
                                           ########,                                 
                                     ,,################,,,,,                         
                               ,,#################################,,                 
                          ,,##########################################,,             
                       ,#########################################, ''#####,          
                    ,#############################################,,   '####,        
                  ,##################################################,,,,####,       
                ,###########''''           ''''###############################       
              ,#####''   ,,,,##########,,,,          '''####'''          '####       
            ,##' ,,,,###########################,,,                        '##       
           ' ,,###''''                  '''############,,,                           
         ,,##''                                '''############,,,,        ,,,,,,###''
      ,#''                                            '''#######################'''  
     '                                                          ''''####''''         
             ,#######,   #######,   ,#######,      ##                                
            ,#'     '#,  ##    ##  ,#'     '#,    #''#        ,####,   ,####,        
            ##       ##  ##   ,#'  ##            #'  '#       #'       #'  '#        
            ##       ##  #######   ##           ,######,      #####,   #    #        
            '#,     ,#'  ##    ##  '#,     ,#' ,#      #,     #,   #   #,  ,#        
             '#######'   ##     ##  '#######'  #'      '#     '####' # '####'        



                #########################################################
                #                        -***-                          #
                #          Department of theory and spectroscopy        #
                #                                                       #
                #                      Frank Neese                      #
                #                                                       #
                #     Directorship, Architecture, Infrastructure        #
                #                    SHARK, DRIVERS                     #
                #        Core code/Algorithms in most modules           #
                #                                                       #
                #        Max Planck Institute fuer Kohlenforschung      #
                #                Kaiser Wilhelm Platz 1                 #
                #                 D-45470 Muelheim/Ruhr                 #
                #                      Germany                          #
                #                                                       #
                #                  All rights reserved                  #
                #                        -***-                          #
                #########################################################


                         Program Version 6.0.1  -  RELEASE   -


 With contributions from (in alphabetic order):
[Max-Planck-Institut fuer Kohlenforschung]                               
  Daniel Aravena         : Magnetic Suceptibility                        
  Michael Atanasov       : Ab Initio Ligand Field Theory (pilot matlab implementation)
  Alexander A. Auer      : GIAO ZORA, VPT2 properties, NMR spectrum      
  Ute Becker             : All parallelization in ORCA, NUMFREQ, NUMCALC 
  Giovanni Bistoni       : ED, misc. LED, open-shell LED, HFLD           
  Martin Brehm           : Molecular dynamics                            
  Dmytro Bykov           : pre 5.0 version of the SCF Hessian            
  Marcos Casanova-Páez   : Triplet and SCS-CIS(D). UHF-(DLPNO)-IP/EA/STEOM-CCSD. UHF-CVS-IP/STEOM-CCSD   
  Vijay G. Chilkuri      : MRCI spin determinant printing, contributions to CSF-ICE 
  Pauline Colinet        : FMM embedding                                 
  Dipayan Datta          : RHF DLPNO-CCSD density                        
  Achintya Kumar Dutta   : EOM-CC, STEOM-CC                              
  Nicolas Foglia         : Exact transition moments, OPA infrastructure, MCD improvements    
  Dmitry Ganyushin       : Spin-Orbit,Spin-Spin,Magnetic field MRCI      
  Miquel Garcia-Rates    : C-PCM and meta-GGA Hessian, CCSD/C-PCM, Gaussian charge scheme 
  Tiago L. C. Gouveia    : GS-ROHF, GS-ROCIS                             
  Yang Guo               : DLPNO-NEVPT2, F12-NEVPT2, CIM, IAO-localization        
  Andreas Hansen         : Spin unrestricted coupled pair/coupled cluster methods 
  Ingolf Harden          : AUTO-CI MPn and infrastructure                
  Benjamin Helmich-Paris : MC-RPA, TRAH-(SCF,CASSCF), AVAS, COSX integrals, SCF dyn. polar. 
  Lee Huntington         : MR-EOM, pCC                                   
  Robert Izsak           : Overlap fitted RIJCOSX, COSX-SCS-MP3, EOM     
  Riya Kayal             : Wick's Theorem for AUTO-CI, AUTO-CI UHF-CCSDT 
  Emily Kempfer          : AUTO-CI, RHF CISDT and CCSDT                  
  Christian Kollmar      : KDIIS, OOCD, Brueckner-CCSD(T), CCSD density, CASPT2, CASPT2-K, improved NEVPT2 
  Axel Koslowski         : Symmetry handling                             
  Simone Kossmann        : meta-GGA functionals, TD-DFT gradient, OOMP2, (MP2 Hessian; deprecated post 5.0) 
  Lucas Lang             : DCDCAS                                        
  Marvin Lechner         : AUTO-CI (C++ implementation), FIC-MRCC        
  Spencer Leger          : CASSCF response                               
  Dagmar Lenk            : GEPOL surface, SMD, ORCA-2-JSON               
  Dimitrios Liakos       : Extrapolation schemes; Compound Job, initial MDCI parallelization 
  Dimitrios Manganas     : Further ROCIS development; embedding schemes. LFT, Crystal Embedding 
  Dimitrios Pantazis     : SARC Basis sets                               
  Anastasios Papadopoulos: AUTO-CI, single reference methods and gradients 
  Taras Petrenko         : pre 6.0 DFT Hessian and TD-DFT gradient, (ASA, deprecated), ECA, 1-Electron XAS/XES, NRVS 
  Peter Pinski           : DLPNO-MP2, DLPNO-MP2 Gradient                 
  Christoph Reimann      : Effective Core Potentials                     
  Marius Retegan         : Local ZFS, SOC                                
  Christoph Riplinger    : Optimizer, TS searches, QM/MM, DLPNO-CCSD(T), (RO)-DLPNO pert. Triples 
  Michael Roemelt        : Original ROCIS implementation                 
  Masaaki Saitow         : Open-shell DLPNO-CCSD energy and density      
  Barbara Sandhoefer     : DKH picture change effects                    
  Kantharuban Sivalingam : CASSCF convergence/infrastructure, NEVPT2 and variants, FIC-MRCI 
  Bernardo de Souza      : ESD, SOC TD-DFT                               
  Georgi L. Stoychev     : AutoAux, RI-MP2 NMR, DLPNO-MP2 response, X2C  
  Van Anh Tran           : RI-MP2 g-tensors                              
  Willem Van den Heuvel  : Paramagnetic NMR                              
  Zikuan Wang            : NOTCH, Electric field optimization            
  Frank Wennmohs         : Technical directorship and infrastructure     
  Hang Xu                : AUTO-CI-Response properties                   
                                                                         
[FACCTs GmbH]                                                            
  Markus Bursch, Miquel Garcia-Rates, Christoph Riplinger, Bernardo de Souza, Georgi L. Stoychev 
                                                                 
  APM, Basis sets (HGBS, AHGBS, def-TZVP (Ac-Lr), def2-XVPD (La-Lu)), CI-OPT, improved COSX, DLPNO-Multilevel,           
  DOCKER, DRACO, updates on ESD, GOAT, IRC, LR-CPCM, MBIS, meta-GGA TD-DFT gradient, ML-optimized integration grids, 
  MM, NACMEs, nearIR, NEB, NEB-TS, NL-DFT gradient (VV10), 2- and 3-layer-ONIOM, interface openCOSMO-RS, QMMM,   
  Crystal-QMMM, SF, symmetry and pop. for TD-DFT, r2SCAN hybrids, SOLVATOR                                   
                                                                         
[Other institutions]                                                     
  V. Asgeirsson          : NEB                                           
  Christoph Bannwarth    : sTDA-DFT, sTD-DFT, PBEh-3c, B97-3c, D3        
  Sebastian Ehlert       : rSCAN, r2SCAN, r2SCAN-3c, D4, dhf basis sets  
  Marvin Friede          : D4 for Fr, Ra, Ac-Lr                          
  Lars Goerigk           : TD-DFT with DH, B97 family of functionals     
  Stefan Grimme          : VdW corrections, initial TS optimization, DFT functionals, gCP, sTDA/sTD-DF 
  Waldemar Hujo          : DFT-NL                                        
  H. Jonsson             : NEB                                           
  Holger Kruse           : gCP                                           
  Marcel Mueller         : wB97X-3c, vDZP basis set                      
  Hagen Neugebauer       : wr2SCAN                                       
  Tobias Risthaus        : range-separated hybrid DFT                    
  Lukas Wittmann         : regularized MP2, r2SCAN double-hybrids, wr2SCAN        
                                                                         
We gratefully acknowledge several colleagues who have allowed us to      
interface, adapt or use parts of their codes:                            
  Ed Valeev, F. Pavosevic, A. Kumar             : LibInt (2-el integral package), F12 methods 
  Garnet Chan, S. Sharma, J. Yang, R. Olivares  : DMRG                   
  Ulf Ekstrom                                   : XCFun DFT Library      
  Mihaly Kallay                                 : mrcc  (arbitrary order and MRCC methods)
  Frank Weinhold                                : gennbo (NPA and NBO analysis)           
  Simon Mueller                                 : openCOSMO-RS                            
  Christopher J. Cramer and Donald G. Truhlar   : smd solvation model                     
  S Lehtola, MJT Oliveira, MAL Marques          : LibXC Library                           
  Liviu Ungur et al                             : ANISO software                          


 Your calculation uses the libint2 library for the computation of 2-el integrals
 For citations please refer to: http://libint.valeyev.net

 Your ORCA version has been built with support for libXC version: 6.2.2
 For citations please refer to: https://libxc.gitlab.io

 This ORCA versions uses:
   CBLAS   interface :  Fast vector & matrix operations
   LAPACKE interface :  Fast linear algebra routines
   SCALAPACK package :  Parallel linear algebra routines
   Shared memory     :  Shared parallel matrices
   BLAS/LAPACK       :  OpenBLAS 0.3.27  USE64BITINT DYNAMIC_ARCH NO_AFFINITY Zen SINGLE_THREADED
        Core in use  :  Zen
   Copyright (c) 2011-2014, The OpenBLAS Project


NOTE: MaxCore=6000 MB was set to SCF,MP2,MDCI,CIPSI,MRCI and CIS
      => If you want to overwrite this, your respective input block should be placed after the MaxCore statement
Your calculation utilizes the atom-pairwise dispersion correction
with the Becke-Johnson damping scheme (D3BJ)


Your calculation employs the composite approach B97-3c by Grimme and coworkers.
For the correct reference, please check the publication list of the Grimme group:
http://www.thch.uni-bonn.de/tc/index.php?section=publikationen&subsection=grimme#2017
   

XCFun DFT library Copyright 2009-2010 Ulf Ekstrom and contributors.
See http://admol.org/xcfun for more information.
This is free software; see the source code for copying conditions.
There is ABSOLUTELY NO WARRANTY; not even for MERCHANTABILITY or FITNESS FOR A PARTICULAR PURPOSE.
For details see the documentation.
Scientific users of this library should cite U. Ekstrom, L. Visscher, R. Bast, A. J. Thorvaldsen and K. Ruud;
J.Chem.Theor.Comp. 2010, DOI: 10.1021/ct100117s
XCFun Version 0.99 

================================================================================

----- Orbital basis set information -----
Your calculation utilizes the basis: def2-mTZVP
----- AuxJ basis set information -----
Your calculation utilizes the basis: def2-mTZVP/J
================================================================================
                                        WARNINGS
                       Please study these warnings very carefully!
================================================================================


WARNING: Geometry Optimization
  ===> : Switching off AutoStart
         For restart on a previous wavefunction, please use MOREAD

================================================================================
                                       INPUT FILE
================================================================================
NAME = m1_00_Vitamin_B5-GFN1_0000-B97-3C-TZ.inp
|  1> %pal nprocs 16 end
|  2> %MaxCore 6000
|  3> # put your comments here
|  4> ! B97-3C  OPT  FREQ DEFGRID3 NOTRAH
|  5> %scf MaxIter 800 end
|  6> %output
|  7> Print [P_Hirshfeld] 1
|  8> end
|  9> %geom
| 10> MaxIter 3000
| 11>  TolE 1e-6 #TolE 5e-6 Energy change (a.u.)
| 12>  TolRMSG 3e-5 #TolRMSG 1e-4 RMS gradient (a.u.)
| 13>  TolMaxG 1e-4 #TolMaxG 3e-3 Max. element of gradient (a.u.)
| 14>  TolRMSD 2e-3 #TolRMSD 2e-3 RMS displacement (a.u.)
| 15>  TolMaxD 4e-3 #TolMaxD 4e-3 Max. displacement (a.u.)
| 16> end
| 17> * xyz 0 1
| 18>  O 3.65148138414819 -0.67221881444229 -2.64946368502725
| 19>  O 2.47841304990346 -1.20127166698887 -6.34276425878277
| 20>  O 3.32337311731389 1.27091537945082 -5.57253328133317
| 21>  O 5.09820816421976 -0.99053723575242 -6.83468130820689
| 22>  O 5.20830727748435 -1.71815034652989 -4.72981259384919
| 23>  N 4.99848689863329 1.07424221942338 -4.06619148560704
| 24>  C 1.63789476760480 -0.63502236202810 -4.05987942475267
| 25>  C 2.84625713356998 0.14972193351731 -3.46246424712616
| 26>  C 2.06501265121650 -1.70935008274079 -5.08335440403914
| 27>  C 0.61698658494425 0.33312411941157 -4.67257867730871
| 28>  C 0.96583218079529 -1.37196035694251 -2.88697459984276
| 29>  C 3.72859341443555 0.87354808366275 -4.49128982101971
| 30>  C 6.04330559200335 1.31973387602021 -5.04709601959683
| 31>  C 6.72918328359318 -0.01085885932517 -5.42682272102054
| 32>  C 5.62227107210728 -1.02280903609185 -5.63160226908854
| 33>  H 2.43883787377367 0.92925956438322 -2.79835901881466
| 34>  H 1.20848222620253 -2.37582081948628 -5.26246087168990
| 35>  H 2.87359224116059 -2.31781743519205 -4.65099786747272
| 36>  H 0.30488219418642 1.06937621864874 -3.93106398849908
| 37>  H -0.26203635375616 -0.22226311820325 -5.00164679588458
| 38>  H 1.02638404282126 0.86273192071416 -5.52995317400572
| 39>  H 0.07703701974833 -1.90025620699430 -3.23252152832413
| 40>  H 0.66956812161487 -0.66151227053474 -2.11483336305869
| 41>  H 1.65206129606201 -2.09428710047173 -2.44556123077847
| 42>  H 5.27242521470231 0.57207226249178 -3.22974851936737
| 43>  H 4.11670631754246 -1.32510010395601 -3.20740400990514
| 44>  H 5.57276753263478 1.76662334039597 -5.92716072449245
| 45>  H 6.77788508949169 2.01542568900774 -4.63322196470389
| 46>  H 2.61766206088412 -0.23469929041964 -6.28656067888599
| 47>  H 7.37643426201806 -0.34722656518756 -4.61560776882730
| 48>  H 7.31037170144349 0.12450511025098 -6.33898207958391
| 49>  H 4.19790758750343 -1.41627504609634 -6.82059861910606
| 50> *
| 51> 
| 52> 
| 53> 
| 54> 
| 55>                          ****END OF INPUT****
================================================================================

                       *****************************
                       * Geometry Optimization Run *
                       *****************************

Geometry optimization settings:
Update method            Update   .... BFGS
Choice of coordinates    CoordSys .... (2022) Redundant Internals
Initial Hessian          InHess   .... Almloef's Model
Max. no of cycles        MaxIter  .... 3000

Convergence Tolerances:
Energy Change            TolE     ....  1.0000e-06 Eh
Max. Gradient            TolMAXG  ....  1.0000e-04 Eh/bohr
RMS Gradient             TolRMSG  ....  3.0000e-05 Eh/bohr
Max. Displacement        TolMAXD  ....  4.0000e-03 bohr
RMS Displacement         TolRMSD  ....  2.0000e-03 bohr
Strict Convergence                .... False

------------------------------------------------------------------------------
                        ORCA OPTIMIZATION COORDINATE SETUP
------------------------------------------------------------------------------

The optimization will be done in redundant internal coordinates (2022)
Making redundant internal coordinates   ...  (2022 redundants) done
Evaluating the initial hessian          ...  (Almloef) done
Evaluating the coordinates              ...  done
Calculating the B-matrix                .... done
Calculating the G-matrix                .... done
Diagonalizing the G-matrix              .... done
Small eigenvalue found = 1.282e-02
Small eigenvalue found = 2.594e-02
The first mode is                       ....   57
The number of degrees of freedom        ....   90

    -----------------------------------------------------------------
                    Redundant Internal Coordinates


    -----------------------------------------------------------------
         Definition                    Initial Value    Approx d2E/dq
    -----------------------------------------------------------------
      1. B(C   7,C   6)                  1.5598         0.334880   
      2. B(C   7,O   0)                  1.4089         0.522100   
      3. B(C   8,C   6)                  1.5441         0.354773   
      4. B(C   8,O   1)                  1.4196         0.502008   
      5. B(C   9,C   6)                  1.5346         0.367331   
      6. B(C  10,C   6)                  1.5396         0.360594   
      7. B(C  11,N   5)                  1.3541         0.638461   
      8. B(C  11,O   2)                  1.2211         1.040579   
      9. B(C  11,C   7)                  1.5365         0.364720   
     10. B(C  12,N   5)                  1.4540         0.442368   
     11. B(C  13,C  12)                  1.5444         0.354357   
     12. B(C  14,C  13)                  1.5137         0.396654   
     13. B(C  14,O   4)                  1.2116         1.077520   
     14. B(C  14,O   3)                  1.3127         0.743469   
     15. B(H  15,C   7)                  1.1021         0.344397   
     16. B(H  16,C   8)                  1.1000         0.347165   
     17. B(H  17,C   8)                  1.1004         0.346552   
     18. B(H  18,C   9)                  1.0906         0.359360   
     19. B(H  19,C   9)                  1.0906         0.359299   
     20. B(H  20,C   9)                  1.0877         0.363100   
     21. B(H  21,C  10)                  1.0902         0.359884   
     22. B(H  22,C  10)                  1.0903         0.359729   
     23. B(H  23,C  10)                  1.0897         0.360457   
     24. B(H  24,N   5)                  1.0133         0.427434   
     25. B(H  24,O   0)                  2.1243         0.007219   
     26. B(H  25,O   0)                  0.9767         0.488977   
     27. B(H  25,O   4)                  1.9141         0.015622   
     28. B(H  26,C  12)                  1.0934         0.355567   
     29. B(H  27,C  12)                  1.0931         0.356011   
     30. B(H  28,O   1)                  0.9782         0.486387   
     31. B(H  28,O   2)                  1.8096         0.022932   
     32. B(H  29,C  13)                  1.0909         0.358861   
     33. B(H  30,C  13)                  1.0900         0.360077   
     34. B(H  31,O   3)                  0.9960         0.455565   
     35. B(H  31,O   4)                  2.3417         0.003248   
     36. B(H  31,O   1)                  1.7976         0.023972   
     37. A(C   7,O   0,H  25)          109.4244         0.355658   
     38. A(C   8,O   1,H  28)          110.1299         0.352982   
     39. A(C  14,O   3,H  31)          109.7193         0.373277   
     40. A(C  12,N   5,H  24)          116.5049         0.338139   
     41. A(C  11,N   5,H  24)          116.0530         0.359713   
     42. A(C  11,N   5,C  12)          119.1523         0.405539   
     43. A(C   7,C   6,C   8)          112.9322         0.353535   
     44. A(C   7,C   6,C  10)          106.6902         0.354511   
     45. A(C   8,C   6,C   9)          110.9980         0.359131   
     46. A(C   7,C   6,C   9)          110.5424         0.355626   
     47. A(C   9,C   6,C  10)          108.4053         0.360128   
     48. A(C   8,C   6,C  10)          107.0184         0.358002   
     49. A(C  11,C   7,H  15)          106.4121         0.320695   
     50. A(C   6,C   7,C  11)          115.1770         0.355196   
     51. A(O   0,C   7,C  11)          109.4517         0.380921   
     52. A(O   0,C   7,H  15)          106.0336         0.338224   
     53. A(O   0,C   7,C   6)          111.7326         0.375335   
     54. A(C   6,C   7,H  15)          107.4734         0.316261   
     55. A(H  16,C   8,H  17)          107.5248         0.287445   
     56. A(O   1,C   8,H  17)          109.4200         0.336369   
     57. A(O   1,C   8,C   6)          114.8090         0.376534   
     58. A(C   6,C   8,H  16)          108.3070         0.319667   
     59. A(O   1,C   8,H  16)          107.4077         0.336468   
     60. A(C   6,C   8,H  17)          109.1199         0.319574   
     61. A(H  18,C   9,H  19)          108.5596         0.290644   
     62. A(C   6,C   9,H  19)          109.5965         0.323305   
     63. A(C   6,C   9,H  18)          110.1718         0.323314   
     64. A(H  19,C   9,H  20)          108.2687         0.291117   
     65. A(H  18,C   9,H  20)          108.3577         0.291125   
     66. A(C   6,C   9,H  20)          111.8071         0.323863   
     67. A(H  21,C  10,H  23)          108.6980         0.290857   
     68. A(C   6,C  10,H  23)          110.5469         0.322495   
     69. A(H  21,C  10,H  22)          108.5852         0.290765   
     70. A(C   6,C  10,H  22)          110.2572         0.322388   
     71. A(C   6,C  10,H  21)          110.2651         0.322411   
     72. A(H  22,C  10,H  23)          108.4316         0.290838   
     73. A(O   2,C  11,C   7)          123.7524         0.430238   
     74. A(O   2,C  11,N   5)          122.7474         0.473157   
     75. A(N   5,C  11,C   7)          113.4621         0.394522   
     76. A(N   5,C  12,C  13)          109.8490         0.368346   
     77. A(H  26,C  12,H  27)          109.5000         0.289742   
     78. A(C  13,C  12,H  27)          110.0586         0.320922   
     79. A(N   5,C  12,H  27)          109.5679         0.330858   
     80. A(C  13,C  12,H  26)          110.2026         0.320857   
     81. A(N   5,C  12,H  26)          107.6232         0.330790   
     82. A(H  29,C  13,H  30)          110.1336         0.290679   
     83. A(C  14,C  13,H  30)          111.0829         0.327530   
     84. A(C  12,C  13,H  30)          109.6066         0.321519   
     85. A(C  14,C  13,H  29)          109.1675         0.327347   
     86. A(C  12,C  13,H  29)          110.2616         0.321341   
     87. A(C  12,C  13,C  14)          106.5283         0.363795   
     88. A(O   4,C  14,C  13)          122.1957         0.439540   
     89. A(O   3,C  14,C  13)          113.5473         0.411300   
     90. A(O   3,C  14,O   4)          124.0449         0.489779   
     91. D(O   0,C   7,C   6,C   8)    -67.6156         0.009106   
     92. D(O   0,C   7,C   6,C   9)    167.3515         0.009106   
     93. D(C  11,C   7,C   6,C   9)    -66.9513         0.009106   
     94. D(C  11,C   7,O   0,H  25)    -59.4600         0.023466   
     95. D(C   6,C   7,O   0,H  25)     69.3299         0.023466   
     96. D(C  11,C   7,C   6,C   8)     58.0816         0.009106   
     97. D(C  11,C   7,C   6,C  10)    175.3799         0.009106   
     98. D(H  15,C   7,O   0,H  25)   -173.8704         0.023466   
     99. D(O   0,C   7,C   6,C  10)     49.6827         0.009106   
    100. D(O   1,C   8,C   6,C   9)     50.7098         0.010119   
    101. D(O   1,C   8,C   6,C  10)    168.8196         0.010119   
    102. D(O   1,C   8,C   6,C   7)    -74.0755         0.010119   
    103. D(H  16,C   8,O   1,H  28)    133.4355         0.021621   
    104. D(C   6,C   8,O   1,H  28)     12.9324         0.021621   
    105. D(H  17,C   8,O   1,H  28)   -110.1321         0.021621   
    106. D(H  16,C   8,C   6,C   7)    165.9182         0.010119   
    107. D(H  16,C   8,C   6,C  10)     48.8133         0.010119   
    108. D(H  16,C   8,C   6,C   9)    -69.2965         0.010119   
    109. D(H  19,C   9,C   6,C  10)    -58.1570         0.010796   
    110. D(H  19,C   9,C   6,C   8)     59.1087         0.010796   
    111. D(H  19,C   9,C   6,C   7)   -174.7678         0.010796   
    112. D(H  18,C   9,C   6,C  10)     61.2314         0.010796   
    113. D(H  18,C   9,C   6,C   8)    178.4971         0.010796   
    114. D(H  18,C   9,C   6,C   7)    -55.3794         0.010796   
    115. D(H  22,C  10,C   6,C   9)    -61.9615         0.010429   
    116. D(H  22,C  10,C   6,C   8)    178.2500         0.010429   
    117. D(H  22,C  10,C   6,C   7)     57.1069         0.010429   
    118. D(H  21,C  10,C   6,C   9)     57.9333         0.010429   
    119. D(H  21,C  10,C   6,C   8)    -61.8551         0.010429   
    120. D(H  21,C  10,C   6,C   7)    177.0017         0.010429   
    121. D(O   2,C  11,N   5,C  12)    -22.7588         0.033165   
    122. D(N   5,C  11,C   7,O   0)    -28.0640         0.009982   
    123. D(O   2,C  11,C   7,H  15)    -91.7042         0.009982   
    124. D(O   2,C  11,C   7,C   6)     27.2647         0.009982   
    125. D(O   2,C  11,C   7,O   0)    154.1294         0.009982   
    126. D(C   7,C  11,N   5,H  24)     12.1116         0.033165   
    127. D(C   7,C  11,N   5,C  12)    159.4095         0.033165   
    128. D(N   5,C  11,C   7,C   6)   -154.9287         0.009982   
    129. D(O   2,C  11,N   5,H  24)   -170.0567         0.033165   
    130. D(H  27,C  12,N   5,C  11)    145.7572         0.016688   
    131. D(H  26,C  12,N   5,H  24)    173.9234         0.016688   
    132. D(H  26,C  12,N   5,C  11)     26.7691         0.016688   
    133. D(C  13,C  12,N   5,H  24)     53.9296         0.016688   
    134. D(C  13,C  12,N   5,C  11)    -93.2246         0.016688   
    135. D(H  29,C  13,C  12,H  27)     46.8399         0.010097   
    136. D(H  29,C  13,C  12,H  26)    167.7050         0.010097   
    137. D(H  29,C  13,C  12,N   5)    -73.8825         0.010097   
    138. D(C  14,C  13,C  12,H  27)    165.1743         0.010097   
    139. D(C  14,C  13,C  12,H  26)    -73.9605         0.010097   
    140. D(C  14,C  13,C  12,N   5)     44.4519         0.010097   
    141. D(O   4,C  14,C  13,H  29)     28.4766         0.011685   
    142. D(O   4,C  14,C  13,C  12)    -90.5742         0.011685   
    143. D(O   3,C  14,C  13,H  30)    -34.9779         0.011685   
    144. D(O   3,C  14,C  13,H  29)   -156.6168         0.011685   
    145. D(O   3,C  14,C  13,C  12)     84.3324         0.011685   
    146. D(C  13,C  14,O   3,H  31)   -159.8347         0.041902   
    147. D(O   4,C  14,O   3,H  31)     14.9632         0.041902   
    -----------------------------------------------------------------

Number of atoms                         .... 32
Number of degrees of freedom            .... 147


         *************************************************************
         *                GEOMETRY OPTIMIZATION CYCLE   1            *
         *************************************************************
---------------------------------
CARTESIAN COORDINATES (ANGSTROEM)
---------------------------------
  O      3.651481   -0.672219   -2.649464
  O      2.478413   -1.201272   -6.342764
  O      3.323373    1.270915   -5.572533
  O      5.098208   -0.990537   -6.834681
  O      5.208307   -1.718150   -4.729813
  N      4.998487    1.074242   -4.066191
  C      1.637895   -0.635022   -4.059879
  C      2.846257    0.149722   -3.462464
  C      2.065013   -1.709350   -5.083354
  C      0.616987    0.333124   -4.672579
  C      0.965832   -1.371960   -2.886975
  C      3.728593    0.873548   -4.491290
  C      6.043306    1.319734   -5.047096
  C      6.729183   -0.010859   -5.426823
  C      5.622271   -1.022809   -5.631602
  H      2.438838    0.929260   -2.798359
  H      1.208482   -2.375821   -5.262461
  H      2.873592   -2.317817   -4.650998
  H      0.304882    1.069376   -3.931064
  H     -0.262036   -0.222263   -5.001647
  H      1.026384    0.862732   -5.529953
  H      0.077037   -1.900256   -3.232522
  H      0.669568   -0.661512   -2.114833
  H      1.652061   -2.094287   -2.445561
  H      5.272425    0.572072   -3.229749
  H      4.116706   -1.325100   -3.207404
  H      5.572768    1.766623   -5.927161
  H      6.777885    2.015426   -4.633222
  H      2.617662   -0.234699   -6.286561
  H      7.376434   -0.347227   -4.615608
  H      7.310372    0.124505   -6.338982
  H      4.197908   -1.416275   -6.820599

----------------------------
CARTESIAN COORDINATES (A.U.)
----------------------------
  NO LB      ZA    FRAG     MASS         X           Y           Z
   0 O     8.0000    0    15.999    6.900300   -1.270309   -5.006761
   1 O     8.0000    0    15.999    4.683522   -2.270074  -11.986087
   2 O     8.0000    0    15.999    6.280265    2.401682  -10.530562
   3 O     8.0000    0    15.999    9.634217   -1.871844  -12.915676
   4 O     8.0000    0    15.999    9.842274   -3.246834   -8.938050
   5 N     7.0000    0    14.007    9.445771    2.030024   -7.683988
   6 C     6.0000    0    12.011    3.095173   -1.200018   -7.672060
   7 C     6.0000    0    12.011    5.378646    0.282933   -6.543109
   8 C     6.0000    0    12.011    3.902308   -3.230204   -9.606148
   9 C     6.0000    0    12.011    1.165936    0.629513   -8.829894
  10 C     6.0000    0    12.011    1.825158   -2.592629   -5.455591
  11 C     6.0000    0    12.011    7.046020    1.650767   -8.487308
  12 C     6.0000    0    12.011   11.420193    2.493936   -9.537629
  13 C     6.0000    0    12.011   12.716314   -0.020520  -10.255209
  14 C     6.0000    0    12.011   10.624553   -1.932829  -10.642186
  15 H     1.0000    0     1.008    4.608736    1.756046   -5.288132
  16 H     1.0000    0     1.008    2.283700   -4.489651   -9.944610
  17 H     1.0000    0     1.008    5.430302   -4.380040   -8.789112
  18 H     1.0000    0     1.008    0.576144    2.020828   -7.428634
  19 H     1.0000    0     1.008   -0.495177   -0.420016   -9.451743
  20 H     1.0000    0     1.008    1.939585    1.630327  -10.450097
  21 H     1.0000    0     1.008    0.145579   -3.590964   -6.108580
  22 H     1.0000    0     1.008    1.265300   -1.250077   -3.996456
  23 H     1.0000    0     1.008    3.121943   -3.957629   -4.621441
  24 H     1.0000    0     1.008    9.963440    1.081060   -6.103340
  25 H     1.0000    0     1.008    7.779448   -2.504076   -6.061115
  26 H     1.0000    0     1.008   10.531004    3.338434  -11.200711
  27 H     1.0000    0     1.008   12.808347    3.808603   -8.755521
  28 H     1.0000    0     1.008    4.946664   -0.443517  -11.879878
  29 H     1.0000    0     1.008   13.939441   -0.656163   -8.722235
  30 H     1.0000    0     1.008   13.814600    0.235281  -11.978940
  31 H     1.0000    0     1.008    7.932896   -2.676372  -12.889063

--------------------------------
INTERNAL COORDINATES (ANGSTROEM)
--------------------------------
 O      0   0   0     0.000000000000     0.00000000     0.00000000
 O      1   0   0     3.911068315141     0.00000000     0.00000000
 O      2   1   0     2.723769826312    61.12780592     0.00000000
 O      2   1   3     2.673895627174    82.48410949    72.55356633
 O      4   2   1     2.229801551349    81.31496128    25.86939844
 N      3   2   1     2.261360678395   109.82957740    34.89647227
 C      1   2   3     2.458696239323    38.25215395    92.46908160
 C      1   2   3     1.408879910017    50.39948119    42.58074531
 C      2   1   3     1.419562167858    45.41050844   216.19302255
 C      7   1   2     1.534588381629   141.57350661   251.20421183
 C      7   1   2     1.539627051345    85.02259587   137.61604180
 C      3   2   1     1.221143594108    93.32366289     8.92052720
 C      6   3   2     1.453989669934    93.91217639    99.95506091
 C     13   6   3     1.544376120946   109.84897674   256.63208675
 C      5   4   2     1.211647712674    29.19530189   217.00493763
 H      8   1   2     1.102136618328   106.03362991   170.26535688
 H      9   2   1     1.099957607668   107.40773951   178.50610387
 H      9   2   1     1.100438842910   109.41996692   294.93859477
 H     10   7   1     1.090559644440   110.17180384   315.42955883
 H     10   7   1     1.090606316289   109.59647116   196.04112798
 H     10   7   1     1.087741572849   111.80713594    75.98551350
 H     11   7   1     1.090163301192   110.26510739   201.04292716
 H     11   7   1     1.090280223514   110.25724966    81.14804600
 H     11   7   1     1.089730281054   110.54691712   321.26411970
 H      6   3   2     1.013337901407   142.48452591   314.50690276
 H      1   2   3     0.976721875957    60.85715263   239.74815189
 H     13   6   3     1.093448738390   107.62319216    16.62583541
 H     13   6   3     1.093108352407   109.56793244   135.61396595
 H      2   1   3     0.978167311148    76.66619172   353.10300081
 H     14  13   6     1.090938477313   110.26155415   286.11748982
 H     14  13   6     1.090017466244   109.60661078   164.71856693
 H      4   2   1     0.995988018866    22.79046403   120.51528425

---------------------------
INTERNAL COORDINATES (A.U.)
---------------------------
 O      0   0   0     0.000000000000     0.00000000     0.00000000
 O      1   0   0     7.390848006673     0.00000000     0.00000000
 O      2   1   0     5.147179023567    61.12780592     0.00000000
 O      2   1   3     5.052930446048    82.48410949    72.55356633
 O      4   2   1     4.213714265043    81.31496128    25.86939844
 N      3   2   1     4.273352372186   109.82957740    34.89647227
 C      1   2   3     4.646262538822    38.25215395    92.46908160
 C      1   2   3     2.662397185515    50.39948119    42.58074531
 C      2   1   3     2.682583727327    45.41050844   216.19302255
 C      7   1   2     2.899951769576   141.57350661   251.20421183
 C      7   1   2     2.909473475420    85.02259587   137.61604180
 C      3   2   1     2.307626963057    93.32366289     8.92052720
 C      6   3   2     2.747642277727    93.91217639    99.95506091
 C     13   6   3     2.918447916356   109.84897674   256.63208675
 C      5   4   2     2.289682347746    29.19530189   217.00493763
 H      8   1   2     2.082736370806   106.03362991   170.26535688
 H      9   2   1     2.078618637416   107.40773951   178.50610387
 H      9   2   1     2.079528040229   109.41996692   294.93859477
 H     10   7   1     2.060859060699   110.17180384   315.42955883
 H     10   7   1     2.060947257711   109.59647116   196.04112798
 H     10   7   1     2.055533677165   111.80713594    75.98551350
 H     11   7   1     2.060110080504   110.26510739   201.04292716
 H     11   7   1     2.060331031671   110.25724966    81.14804600
 H     11   7   1     2.059291791033   110.54691712   321.26411970
 H      6   3   2     1.914931114781   142.48452591   314.50690276
 H      1   2   3     1.845736854569    60.85715263   239.74815189
 H     13   6   3     2.066318657039   107.62319216    16.62583541
 H     13   6   3     2.065675420751   109.56793244   135.61396595
 H      2   1   3     1.848468331224    76.66619172   353.10300081
 H     14  13   6     2.061574951078   110.26155415   286.11748982
 H     14  13   6     2.059834492392   109.60661078   164.71856693
 H      4   2   1     1.882144588323    22.79046403   120.51528425

---------------------
BASIS SET INFORMATION
---------------------
There are 4 groups of distinct atoms

 Group   1 Type O   : 11s6p2d contracted to 5s3p2d pattern {62111/411/11}
 Group   2 Type N   : 11s6p1d contracted to 5s3p1d pattern {62111/411/1}
 Group   3 Type C   : 11s6p1d contracted to 5s3p1d pattern {62111/411/1}
 Group   4 Type H   : 5s contracted to 3s pattern {311}

Atom   0O    basis set group =>   1
Atom   1O    basis set group =>   1
Atom   2O    basis set group =>   1
Atom   3O    basis set group =>   1
Atom   4O    basis set group =>   1
Atom   5N    basis set group =>   2
Atom   6C    basis set group =>   3
Atom   7C    basis set group =>   3
Atom   8C    basis set group =>   3
Atom   9C    basis set group =>   3
Atom  10C    basis set group =>   3
Atom  11C    basis set group =>   3
Atom  12C    basis set group =>   3
Atom  13C    basis set group =>   3
Atom  14C    basis set group =>   3
Atom  15H    basis set group =>   4
Atom  16H    basis set group =>   4
Atom  17H    basis set group =>   4
Atom  18H    basis set group =>   4
Atom  19H    basis set group =>   4
Atom  20H    basis set group =>   4
Atom  21H    basis set group =>   4
Atom  22H    basis set group =>   4
Atom  23H    basis set group =>   4
Atom  24H    basis set group =>   4
Atom  25H    basis set group =>   4
Atom  26H    basis set group =>   4
Atom  27H    basis set group =>   4
Atom  28H    basis set group =>   4
Atom  29H    basis set group =>   4
Atom  30H    basis set group =>   4
Atom  31H    basis set group =>   4
---------------------------------
AUXILIARY/J BASIS SET INFORMATION
---------------------------------
There are 4 groups of distinct atoms

 Group   1 Type O   : 8s3p3d contracted to 6s3p3d pattern {311111/111/111}
 Group   2 Type N   : 8s3p3d contracted to 6s3p3d pattern {311111/111/111}
 Group   3 Type C   : 8s3p3d contracted to 6s3p3d pattern {311111/111/111}
 Group   4 Type H   : 5s2p contracted to 3s1p pattern {311/2}

Atom   0O    basis set group =>   1
Atom   1O    basis set group =>   1
Atom   2O    basis set group =>   1
Atom   3O    basis set group =>   1
Atom   4O    basis set group =>   1
Atom   5N    basis set group =>   2
Atom   6C    basis set group =>   3
Atom   7C    basis set group =>   3
Atom   8C    basis set group =>   3
Atom   9C    basis set group =>   3
Atom  10C    basis set group =>   3
Atom  11C    basis set group =>   3
Atom  12C    basis set group =>   3
Atom  13C    basis set group =>   3
Atom  14C    basis set group =>   3
Atom  15H    basis set group =>   4
Atom  16H    basis set group =>   4
Atom  17H    basis set group =>   4
Atom  18H    basis set group =>   4
Atom  19H    basis set group =>   4
Atom  20H    basis set group =>   4
Atom  21H    basis set group =>   4
Atom  22H    basis set group =>   4
Atom  23H    basis set group =>   4
Atom  24H    basis set group =>   4
Atom  25H    basis set group =>   4
Atom  26H    basis set group =>   4
Atom  27H    basis set group =>   4
Atom  28H    basis set group =>   4
Atom  29H    basis set group =>   4
Atom  30H    basis set group =>   4
Atom  31H    basis set group =>   4


           ************************************************************
           *        Program running with 16 parallel MPI-processes    *
           *              working on a common directory               *
           ************************************************************
------------------------------------------------------------------------------
                             ORCA STARTUP CALCULATIONS
                           -- RI-GTO INTEGRALS CHOSEN --
------------------------------------------------------------------------------
------------------------------------------------------------------------------
                   ___                                                        
                  /   \      - P O W E R E D   B Y -                         
                 /     \                                                     
                 |  |  |   _    _      __       _____    __    __             
                 |  |  |  | |  | |    /  \     |  _  \  |  |  /  |          
                  \  \/   | |  | |   /    \    | | | |  |  | /  /          
                 / \  \   | |__| |  /  /\  \   | |_| |  |  |/  /          
                |  |  |   |  __  | /  /__\  \  |    /   |      \           
                |  |  |   | |  | | |   __   |  |    \   |  |\   \          
                \     /   | |  | | |  |  |  |  | |\  \  |  | \   \       
                 \___/    |_|  |_| |__|  |__|  |_| \__\ |__|  \__/        
                                                                              
                      - O R C A' S   B I G   F R I E N D -                    
                                      &                                       
                       - I N T E G R A L  F E E D E R -                       
                                                                              
 v1 FN, 2020, v2 2021, v3 2022-2024                                           
------------------------------------------------------------------------------


----------------------
SHARK INTEGRAL PACKAGE
----------------------

Number of atoms                             ...     32
Number of basis functions                   ...    361
Number of shells                            ...    191
Maximum angular momentum                    ...      2
Integral batch strategy                     ... SHARK/LIBINT Hybrid
RI-J (if used) integral strategy            ... SPLIT-RIJ (Revised 2003 algorithm where possible)
Printlevel                                  ...      1
Contraction scheme used                     ... SEGMENTED contraction
Prescreening option                         ... SCHWARTZ
   Thresh                                   ... 2.500e-11
   Tcut                                     ... 2.500e-12
   Tpresel                                  ... 2.500e-12 
Coulomb Range Separation                    ... NOT USED
Exchange Range Separation                   ... NOT USED
Multipole approximations                    ... NOT USED
Finite Nucleus Model                        ... NOT USED
CABS basis                                  ... NOT available
Auxiliary Coulomb fitting basis             ... AVAILABLE
   # of basis functions in Aux-J            ...    552
   # of shells in Aux-J                     ...    248
   Maximum angular momentum in Aux-J        ...      2
Auxiliary J/K fitting basis                 ... NOT available
Auxiliary Correlation fitting basis         ... NOT available
Auxiliary 'external' fitting basis          ... NOT available

Checking pre-screening integrals            ... done (  0.0 sec) Dimension = 191
Check shell pair data                       ... done (  0.0 sec)
Shell pair information
Shell pair cut-off parameter TPreSel        ...   2.5e-12
Total number of shell pairs                 ...     18336
Shell pairs after pre-screening             ...     15843
Total number of primitive shell pairs       ...     65361
Primitive shell pairs kept                  ...     37792
          la=0 lb=0:   6505 shell pairs
          la=1 lb=0:   5104 shell pairs
          la=1 lb=1:   1002 shell pairs
          la=2 lb=0:   2180 shell pairs
          la=2 lb=1:    856 shell pairs
          la=2 lb=2:    196 shell pairs

Calculating one electron integrals          ... done (  0.0 sec)
Calculating RI/J V-Matrix + Cholesky decomp.... done (  0.0 sec)
Calculating Nuclear repulsion               ... done (  0.0 sec) ENN=   1202.917273068862 Eh

Diagonalization of the overlap matrix:
Smallest eigenvalue                        ... 3.891e-05
Time for diagonalization                   ...    0.010 sec
Threshold for overlap eigenvalues          ... 1.000e-07
Number of eigenvalues below threshold      ... 0
Time for construction of square roots      ...    0.005 sec
Total time needed                          ...    0.016 sec

-------------------
DFT GRID GENERATION
-------------------

General Integration Accuracy     IntAcc      ... 4.959
Radial Grid Type                 RadialGrid  ... OptM3 with GC (2021)
Angular Grid (max. ang.)         AngularGrid ... 6 (Lebedev-590)
Angular grid pruning method      GridPruning ... 4 (adaptive)
Weight generation scheme         WeightScheme... mBecke (2022)
Basis function cutoff            BFCut       ... 1.0000e-11
Integration weight cutoff        WCut        ... 1.0000e-14
Partially contracted basis set               ... off
Rotationally invariant grid construction     ... off
Angular grids for H and He will be reduced by one unit
Diffuse basis detected: some atoms will have their outermost
                        angular grid increased by 1.

Total number of grid points                  ...   359063
Total number of batches                      ...     5628
Average number of points per batch           ...       63
Average number of grid points per atom       ...    11221
Initializing property integral containers    ... done (  0.0 sec)

SHARK setup successfully completed in   2.6 seconds

Maximum memory used throughout the entire STARTUP-calculation: 82.4 MB


           ************************************************************
           *        Program running with 16 parallel MPI-processes    *
           *              working on a common directory               *
           ************************************************************
-------------------------------------------------------------------------------
                                 ORCA GUESS
                   Start orbitals & Density for SCF / CASSCF
-------------------------------------------------------------------------------

------------
SCF SETTINGS
------------
Hamiltonian:
 Density Functional     Method          .... DFT(GTOs)
 Exchange Functional    Exchange        .... B973C
 Correlation Functional Correlation     .... B973C
 Gradients option       PostSCFGGA      .... off
 RI-approximation to the Coulomb term is turned on
   Number of AuxJ basis functions       .... 552


General Settings:
 Integral files         IntName         .... m1_00_Vitamin_B5-GFN1_0000-B97-3C-TZ
 Hartree-Fock type      HFTyp           .... RHF
 Total Charge           Charge          ....    0
 Multiplicity           Mult            ....    1
 Number of Electrons    NEL             ....  118
 Basis Dimension        Dim             ....  361
 Nuclear Repulsion      ENuc            ....   1202.9172730689 Eh

Convergence Acceleration:
 AO-DIIS                CNVDIIS         .... on
   Start iteration      DIISMaxIt       ....    12
   Startup error        DIISStart       ....  0.200000
   # of expansion vecs  DIISMaxEq       ....     5
   Bias factor          DIISBfac        ....   1.050
   Max. coefficient     DIISMaxC        ....  10.000
 MO-DIIS                CNVKDIIS        .... off
 Trust-Rad. Augm. Hess. CNVTRAH         .... off
 SOSCF                  CNVSOSCF        .... on
   Start iteration      SOSCFMaxIt      ....   150
   Startup grad/error   SOSCFStart      ....  0.003300
   Hessian update       SOSCFHessUp     .... L-BFGS
 Level Shifting         CNVShift        .... on
   Level shift para.    LevelShift      ....    0.2500
   Turn off err/grad.   ShiftErr        ....    0.0010
 Zerner damping         CNVZerner       .... off
 Static damping         CNVDamp         .... on
   Fraction old density DampFac         ....    0.7000
   Max. Damping (<1)    DampMax         ....    0.9800
   Min. Damping (>=0)   DampMin         ....    0.0000
   Turn off err/grad.   DampErr         ....    0.1000

SCF Procedure:
 Maximum # iterations   MaxIter         ....   800
 SCF integral mode      SCFMode         .... Direct
   Integral package                     .... SHARK and LIBINT hybrid scheme
 Reset frequency        DirectResetFreq ....    20
 Integral Threshold     Thresh          ....  2.500e-11 Eh
 Primitive CutOff       TCut            ....  2.500e-12 Eh

Convergence Tolerance:
 Convergence Check Mode ConvCheckMode   .... Total+1el-Energy
 Convergence forced     ConvForced      .... 0
 Energy Change          TolE            ....  1.000e-08 Eh
 1-El. energy change                    ....  1.000e-05 Eh
 Orbital Gradient       TolG            ....  1.000e-05
 Orbital Rotation angle TolX            ....  1.000e-05
 DIIS Error             TolErr          ....  5.000e-07

--------------------------------
INITIAL GUESS: MINIMAL BASIS EHT
--------------------------------
The minimal basis has 92 functions
EHT matrix was diagonalized
Basis set overlap was calculated now projecting the orbitals
Using GuessMode=FMatrix for the initial guess
C*T matrix was formed
Effective Fockian was calculated
Effective Fockian was diagonalized
Initial density was built
                      ------------------
                      INITIAL GUESS DONE
                      ------------------
             **** ENERGY FILE WAS UPDATED (m1_00_Vitamin_B5-GFN1_0000-B97-3C-TZ.en.tmp) ****
Finished Guess after   0.2 sec
Maximum memory used throughout the entire GUESS-calculation: 26.8 MB


           ************************************************************
           *        Program running with 16 parallel MPI-processes    *
           *              working on a common directory               *
           ************************************************************

-------------------------------------------------------------------------------------------
                                      ORCA LEAN-SCF
                              memory conserving SCF solver
-------------------------------------------------------------------------------------------

----------------------------------------D-I-I-S--------------------------------------------
Iteration    Energy (Eh)           Delta-E    RMSDP     MaxDP     DIISErr   Damp  Time(sec)
-------------------------------------------------------------------------------------------
               ***  Starting incremental Fock matrix formation  ***
    1    -780.9621326552535265     0.00e+00  5.66e-03  1.78e-01  4.40e-01  0.700   0.5
    2    -781.9512649602615966    -9.89e-01  4.09e-03  2.04e-01  3.12e-01  0.700   0.5
    3    -782.4212532329411260    -4.70e-01  2.49e-03  6.63e-02  2.23e-01  0.700   0.5
                               ***Turning on AO-DIIS***
    4    -782.7731400123302592    -3.52e-01  1.75e-03  4.31e-02  1.56e-01  0.700   0.5
    5    -783.0212132889550958    -2.48e-01  1.25e-03  3.11e-02  1.07e-01  0.700   0.5
    6    -783.1950884644459165    -1.74e-01  8.78e-04  2.25e-02  7.45e-02  0.700   0.5
    7    -783.3173582936851744    -1.22e-01  2.15e-03  9.11e-02  5.22e-02  0.000   0.5
    8    -783.5997334239896190    -2.82e-01  4.03e-04  3.21e-02  2.81e-02  0.000   0.5
    9    -783.6024954496738246    -2.76e-03  1.45e-04  4.50e-03  1.07e-02  0.000   0.5
   10    -783.6026049409986172    -1.09e-04  5.35e-05  1.85e-03  6.34e-03  0.000   0.5
                              *** Initializing SOSCF ***
---------------------------------------S-O-S-C-F--------------------------------------
Iteration    Energy (Eh)           Delta-E    RMSDP     MaxDP     MaxGrad    Time(sec)
--------------------------------------------------------------------------------------
   11    -783.6027645116760141    -1.60e-04  1.83e-05  5.44e-04  1.06e-03     0.5
               *** Restarting incremental Fock matrix formation ***
   12    -783.6027723143151889    -7.80e-06  1.96e-05  1.07e-03  5.47e-05     0.5
   13    -783.6027709062691429     1.41e-06  1.09e-05  4.19e-04  1.14e-04     0.5
   14    -783.6027728410251711    -1.93e-06  5.36e-06  5.91e-04  2.36e-05     0.4
   15    -783.6027727224686714     1.19e-07  3.37e-06  3.24e-04  6.79e-05     0.4
   16    -783.6027728523540645    -1.30e-07  3.36e-06  5.18e-04  3.22e-06     0.4
   17    -783.6027728549383937    -2.58e-09  1.38e-06  1.80e-04  3.99e-06     0.4
                 **** Energy Check signals convergence ****

               *****************************************************
               *                     SUCCESS                       *
               *           SCF CONVERGED AFTER  17 CYCLES          *
               *****************************************************

             **** ENERGY FILE WAS UPDATED (m1_00_Vitamin_B5-GFN1_0000-B97-3C-TZ.en.tmp) ****

----------------
TOTAL SCF ENERGY
----------------

Total Energy       :       -783.60277285493839 Eh          -21322.91549 eV

Components:
Nuclear Repulsion  :       1202.91727306886150 Eh           32733.04312 eV
Electronic Energy  :      -1986.52004592379990 Eh          -54055.95860 eV
One Electron Energy:      -3461.06937333572614 Eh          -94180.48569 eV
Two Electron Energy:       1474.54932741192624 Eh           40124.52709 eV

Virial components:
Potential Energy   :      -1564.39156482883482 Eh          -42569.25866 eV
Kinetic Energy     :        780.78879197389642 Eh           21246.34317 eV
Virial Ratio       :          2.00360402314937

DFT components:
N(Alpha)           :       58.999953105293 electrons
N(Beta)            :       58.999953105293 electrons
N(Total)           :      117.999906210586 electrons
E(XC)              :     -104.579539928570 Eh       

---------------
SCF CONVERGENCE
---------------

  Last Energy change         ...    2.5843e-09  Tolerance :   1.0000e-08
  Last MAX-Density change    ...    1.7962e-04  Tolerance :   1.0000e-07
  Last RMS-Density change    ...    1.3840e-06  Tolerance :   5.0000e-09
  Last DIIS Error            ...    1.0632e-03  Tolerance :   5.0000e-07
  Last Orbital Gradient      ...    3.9914e-06  Tolerance :   1.0000e-05
  Last Orbital Rotation      ...    5.5648e-06  Tolerance :   1.0000e-05


----------------
ORBITAL ENERGIES
----------------

  NO   OCC          E(Eh)            E(eV) 
   0   2.0000     -18.789353      -511.2843 
   1   2.0000     -18.750063      -510.2151 
   2   2.0000     -18.746016      -510.1050 
   3   2.0000     -18.742495      -510.0092 
   4   2.0000     -18.730313      -509.6777 
   5   2.0000     -14.024836      -381.6352 
   6   2.0000     -10.028340      -272.8850 
   7   2.0000      -9.998662      -272.0774 
   8   2.0000      -9.959209      -271.0038 
   9   2.0000      -9.949144      -270.7300 
  10   2.0000      -9.935833      -270.3678 
  11   2.0000      -9.921195      -269.9694 
  12   2.0000      -9.913512      -269.7604 
  13   2.0000      -9.880163      -268.8529 
  14   2.0000      -9.877159      -268.7712 
  15   2.0000      -1.035956       -28.1898 
  16   2.0000      -0.985485       -26.8164 
  17   2.0000      -0.955864       -26.0104 
  18   2.0000      -0.948110       -25.7994 
  19   2.0000      -0.940494       -25.5921 
  20   2.0000      -0.869117       -23.6499 
  21   2.0000      -0.748864       -20.3776 
  22   2.0000      -0.730981       -19.8910 
  23   2.0000      -0.658521       -17.9193 
  24   2.0000      -0.628364       -17.0987 
  25   2.0000      -0.618561       -16.8319 
  26   2.0000      -0.612928       -16.6786 
  27   2.0000      -0.563134       -15.3237 
  28   2.0000      -0.547697       -14.9036 
  29   2.0000      -0.520915       -14.1748 
  30   2.0000      -0.503350       -13.6968 
  31   2.0000      -0.470787       -12.8108 
  32   2.0000      -0.467124       -12.7111 
  33   2.0000      -0.450652       -12.2629 
  34   2.0000      -0.438386       -11.9291 
  35   2.0000      -0.434539       -11.8244 
  36   2.0000      -0.421101       -11.4587 
  37   2.0000      -0.416158       -11.3242 
  38   2.0000      -0.400111       -10.8876 
  39   2.0000      -0.395328       -10.7574 
  40   2.0000      -0.388040       -10.5591 
  41   2.0000      -0.376114       -10.2346 
  42   2.0000      -0.373566       -10.1653 
  43   2.0000      -0.365171        -9.9368 
  44   2.0000      -0.347761        -9.4631 
  45   2.0000      -0.346637        -9.4325 
  46   2.0000      -0.343179        -9.3384 
  47   2.0000      -0.337251        -9.1771 
  48   2.0000      -0.330093        -8.9823 
  49   2.0000      -0.326145        -8.8749 
  50   2.0000      -0.304359        -8.2820 
  51   2.0000      -0.297133        -8.0854 
  52   2.0000      -0.287533        -7.8242 
  53   2.0000      -0.284910        -7.7528 
  54   2.0000      -0.252396        -6.8681 
  55   2.0000      -0.247144        -6.7251 
  56   2.0000      -0.237360        -6.4589 
  57   2.0000      -0.232910        -6.3378 
  58   2.0000      -0.217685        -5.9235 
  59   0.0000      -0.046221        -1.2577 
  60   0.0000      -0.036418        -0.9910 
  61   0.0000       0.018267         0.4971 
  62   0.0000       0.034273         0.9326 
  63   0.0000       0.045705         1.2437 
  64   0.0000       0.055505         1.5104 
  65   0.0000       0.059780         1.6267 
  66   0.0000       0.065854         1.7920 
  67   0.0000       0.070544         1.9196 
  68   0.0000       0.074224         2.0197 
  69   0.0000       0.082607         2.2479 
*Only the first 10 virtual orbitals were printed.

                    ********************************
                    * MULLIKEN POPULATION ANALYSIS *
                    ********************************

-----------------------
MULLIKEN ATOMIC CHARGES
-----------------------
   0 O :   -0.606975
   1 O :   -0.597755
   2 O :   -0.484483
   3 O :   -0.432904
   4 O :   -0.445424
   5 N :   -0.280596
   6 C :    0.207340
   7 C :   -0.090487
   8 C :   -0.288327
   9 C :   -0.499463
  10 C :   -0.503049
  11 C :    0.225879
  12 C :   -0.260631
  13 C :   -0.344747
  14 C :    0.395606
  15 H :    0.198037
  16 H :    0.158180
  17 H :    0.174684
  18 H :    0.162127
  19 H :    0.164416
  20 H :    0.193878
  21 H :    0.177060
  22 H :    0.168141
  23 H :    0.181662
  24 H :    0.351348
  25 H :    0.430200
  26 H :    0.201997
  27 H :    0.204427
  28 H :    0.426899
  29 H :    0.200295
  30 H :    0.183162
  31 H :    0.429502
Sum of atomic charges:   -0.0000000

--------------------------------
MULLIKEN REDUCED ORBITAL CHARGES
--------------------------------
  0 O s       :     3.810140  s :     3.810140
      pz      :     1.621905  p :     4.760190
      px      :     1.626530
      py      :     1.511755
      dz2     :     0.005504  d :     0.036645
      dxz     :     0.010178
      dyz     :     0.013845
      dx2y2   :     0.001130
      dxy     :     0.005988

  1 O s       :     3.796074  s :     3.796074
      pz      :     1.497559  p :     4.779249
      px      :     1.841833
      py      :     1.439857
      dz2     :     0.011054  d :     0.022432
      dxz     :    -0.002426
      dyz     :    -0.000900
      dx2y2   :     0.002131
      dxy     :     0.012573

  2 O s       :     3.849125  s :     3.849125
      pz      :     1.345874  p :     4.586083
      px      :     1.721944
      py      :     1.518264
      dz2     :     0.012005  d :     0.049275
      dxz     :     0.006790
      dyz     :     0.011390
      dx2y2   :     0.012803
      dxy     :     0.006287

  3 O s       :     3.758237  s :     3.758237
      pz      :     1.467136  p :     4.648100
      px      :     1.457337
      py      :     1.723627
      dz2     :     0.012291  d :     0.026566
      dxz     :     0.003555
      dyz     :     0.002683
      dx2y2   :     0.002347
      dxy     :     0.005691

  4 O s       :     3.815556  s :     3.815556
      pz      :     1.523676  p :     4.591541
      px      :     1.618007
      py      :     1.449858
      dz2     :     0.007914  d :     0.038327
      dxz     :     0.005829
      dyz     :     0.014280
      dx2y2   :     0.006119
      dxy     :     0.004186

  5 N s       :     3.343693  s :     3.343693
      pz      :     1.241039  p :     3.894798
      px      :     1.114089
      py      :     1.539669
      dz2     :     0.007503  d :     0.042105
      dxz     :     0.012277
      dyz     :     0.007476
      dx2y2   :     0.007965
      dxy     :     0.006884

  6 C s       :     2.846262  s :     2.846262
      pz      :     0.978810  p :     2.893236
      px      :     0.949908
      py      :     0.964518
      dz2     :     0.007444  d :     0.053162
      dxz     :     0.010603
      dyz     :     0.014615
      dx2y2   :     0.006878
      dxy     :     0.013622

  7 C s       :     3.178355  s :     3.178355
      pz      :     0.913006  p :     2.841942
      px      :     0.943707
      py      :     0.985229
      dz2     :     0.007096  d :     0.070190
      dxz     :     0.017487
      dyz     :     0.018528
      dx2y2   :     0.011801
      dxy     :     0.015279

  8 C s       :     3.282624  s :     3.282624
      pz      :     0.812760  p :     2.941792
      px      :     1.100933
      py      :     1.028099
      dz2     :     0.016079  d :     0.063911
      dxz     :     0.013663
      dyz     :     0.014746
      dx2y2   :     0.003622
      dxy     :     0.015802

  9 C s       :     3.238735  s :     3.238735
      pz      :     1.114386  p :     3.223399
      px      :     1.059746
      py      :     1.049267
      dz2     :     0.004420  d :     0.037329
      dxz     :     0.006798
      dyz     :     0.012017
      dx2y2   :     0.004144
      dxy     :     0.009949

 10 C s       :     3.255305  s :     3.255305
      pz      :     1.024057  p :     3.210339
      px      :     1.093728
      py      :     1.092553
      dz2     :     0.004901  d :     0.037406
      dxz     :     0.007418
      dyz     :     0.011437
      dx2y2   :     0.002880
      dxy     :     0.010770

 11 C s       :     3.181901  s :     3.181901
      pz      :     0.763926  p :     2.483129
      px      :     0.883765
      py      :     0.835438
      dz2     :     0.024300  d :     0.109091
      dxz     :     0.032990
      dyz     :     0.019689
      dx2y2   :     0.015313
      dxy     :     0.016798

 12 C s       :     3.216675  s :     3.216675
      pz      :     1.004522  p :     2.989561
      px      :     0.974013
      py      :     1.011026
      dz2     :     0.007147  d :     0.054395
      dxz     :     0.015291
      dyz     :     0.010269
      dx2y2   :     0.006700
      dxy     :     0.014988

 13 C s       :     3.168151  s :     3.168151
      pz      :     1.175496  p :     3.135039
      px      :     0.989363
      py      :     0.970179
      dz2     :     0.007101  d :     0.041558
      dxz     :     0.012039
      dyz     :     0.005395
      dx2y2   :     0.004963
      dxy     :     0.012058

 14 C s       :     3.125117  s :     3.125117
      pz      :     0.730357  p :     2.354478
      px      :     0.802621
      py      :     0.821500
      dz2     :     0.041756  d :     0.124798
      dxz     :     0.028326
      dyz     :     0.026833
      dx2y2   :     0.011658
      dxy     :     0.016225

 15 H s       :     0.801963  s :     0.801963

 16 H s       :     0.841820  s :     0.841820

 17 H s       :     0.825316  s :     0.825316

 18 H s       :     0.837873  s :     0.837873

 19 H s       :     0.835584  s :     0.835584

 20 H s       :     0.806122  s :     0.806122

 21 H s       :     0.822940  s :     0.822940

 22 H s       :     0.831859  s :     0.831859

 23 H s       :     0.818338  s :     0.818338

 24 H s       :     0.648652  s :     0.648652

 25 H s       :     0.569800  s :     0.569800

 26 H s       :     0.798003  s :     0.798003

 27 H s       :     0.795573  s :     0.795573

 28 H s       :     0.573101  s :     0.573101

 29 H s       :     0.799705  s :     0.799705

 30 H s       :     0.816838  s :     0.816838

 31 H s       :     0.570498  s :     0.570498



                     *******************************
                     * LOEWDIN POPULATION ANALYSIS *
                     *******************************

----------------------
LOEWDIN ATOMIC CHARGES
----------------------
   0 O :   -0.775650
   1 O :   -0.763276
   2 O :   -0.592779
   3 O :   -0.500682
   4 O :   -0.496862
   5 N :   -0.172861
   6 C :   -0.095823
   7 C :    0.117118
   8 C :    0.034435
   9 C :   -0.388135
  10 C :   -0.387771
  11 C :    0.281269
  12 C :   -0.159013
  13 C :   -0.226351
  14 C :    0.355175
  15 H :    0.206288
  16 H :    0.176740
  17 H :    0.188467
  18 H :    0.157908
  19 H :    0.160118
  20 H :    0.186599
  21 H :    0.156090
  22 H :    0.161549
  23 H :    0.175248
  24 H :    0.316312
  25 H :    0.375249
  26 H :    0.200100
  27 H :    0.160982
  28 H :    0.382159
  29 H :    0.178392
  30 H :    0.187124
  31 H :    0.401881

-------------------------------
LOEWDIN REDUCED ORBITAL CHARGES
-------------------------------
  0 O s       :     3.535470  s :     3.535470
      pz      :     1.638611  p :     4.833324
      px      :     1.641875
      py      :     1.552838
      dz2     :     0.067591  d :     0.406855
      dxz     :     0.089049
      dyz     :     0.084636
      dx2y2   :     0.066331
      dxy     :     0.099249

  1 O s       :     3.532453  s :     3.532453
      pz      :     1.567973  p :     4.839506
      px      :     1.802045
      py      :     1.469488
      dz2     :     0.103448  d :     0.391317
      dxz     :     0.078465
      dyz     :     0.084651
      dx2y2   :     0.064974
      dxy     :     0.059779

  2 O s       :     3.534255  s :     3.534255
      pz      :     1.493662  p :     4.707451
      px      :     1.702329
      py      :     1.511460
      dz2     :     0.087328  d :     0.351073
      dxz     :     0.077273
      dyz     :     0.076547
      dx2y2   :     0.063081
      dxy     :     0.046844

  3 O s       :     3.497909  s :     3.497909
      pz      :     1.540262  p :     4.691047
      px      :     1.469540
      py      :     1.681245
      dz2     :     0.088024  d :     0.311726
      dxz     :     0.075962
      dyz     :     0.055340
      dx2y2   :     0.049212
      dxy     :     0.043187

  4 O s       :     3.516657  s :     3.516657
      pz      :     1.563002  p :     4.659608
      px      :     1.594805
      py      :     1.501801
      dz2     :     0.080436  d :     0.320597
      dxz     :     0.065441
      dyz     :     0.072058
      dx2y2   :     0.044825
      dxy     :     0.057837

  5 N s       :     3.123584  s :     3.123584
      pz      :     1.277338  p :     3.971715
      px      :     1.201813
      py      :     1.492564
      dz2     :     0.014553  d :     0.077562
      dxz     :     0.024659
      dyz     :     0.010330
      dx2y2   :     0.015612
      dxy     :     0.012407

  6 C s       :     2.857240  s :     2.857240
      pz      :     1.042842  p :     3.133523
      px      :     1.027536
      py      :     1.063146
      dz2     :     0.013766  d :     0.105060
      dxz     :     0.021220
      dyz     :     0.029378
      dx2y2   :     0.012719
      dxy     :     0.027978

  7 C s       :     2.824315  s :     2.824315
      pz      :     0.971174  p :     2.918351
      px      :     0.979760
      py      :     0.967418
      dz2     :     0.013141  d :     0.140215
      dxz     :     0.036751
      dyz     :     0.037288
      dx2y2   :     0.021543
      dxy     :     0.031493

  8 C s       :     2.864195  s :     2.864195
      pz      :     0.892797  p :     2.975452
      px      :     1.059980
      py      :     1.022675
      dz2     :     0.034230  d :     0.125918
      dxz     :     0.027101
      dyz     :     0.031144
      dx2y2   :     0.005935
      dxy     :     0.027508

  9 C s       :     2.977132  s :     2.977132
      pz      :     1.138802  p :     3.349577
      px      :     1.096383
      py      :     1.114392
      dz2     :     0.007196  d :     0.061426
      dxz     :     0.010901
      dyz     :     0.019320
      dx2y2   :     0.007198
      dxy     :     0.016811

 10 C s       :     2.979617  s :     2.979617
      pz      :     1.093731  p :     3.346908
      px      :     1.119766
      py      :     1.133411
      dz2     :     0.008361  d :     0.061246
      dxz     :     0.012529
      dyz     :     0.018954
      dx2y2   :     0.004647
      dxy     :     0.016755

 11 C s       :     2.772061  s :     2.772061
      pz      :     0.957870  p :     2.707625
      px      :     0.942998
      py      :     0.806757
      dz2     :     0.054045  d :     0.239046
      dxz     :     0.076156
      dyz     :     0.041684
      dx2y2   :     0.034516
      dxy     :     0.032644

 12 C s       :     2.915886  s :     2.915886
      pz      :     1.056808  p :     3.141347
      px      :     1.019542
      py      :     1.064997
      dz2     :     0.013234  d :     0.101780
      dxz     :     0.029546
      dyz     :     0.018478
      dx2y2   :     0.012449
      dxy     :     0.028073

 13 C s       :     2.932832  s :     2.932832
      pz      :     1.118977  p :     3.221536
      px      :     1.059630
      py      :     1.042929
      dz2     :     0.011433  d :     0.071983
      dxz     :     0.019771
      dyz     :     0.009029
      dx2y2   :     0.009551
      dxy     :     0.022199

 14 C s       :     2.743429  s :     2.743429
      pz      :     0.913426  p :     2.624999
      px      :     0.861178
      py      :     0.850396
      dz2     :     0.098292  d :     0.276396
      dxz     :     0.061520
      dyz     :     0.060850
      dx2y2   :     0.020229
      dxy     :     0.035506

 15 H s       :     0.793712  s :     0.793712

 16 H s       :     0.823260  s :     0.823260

 17 H s       :     0.811533  s :     0.811533

 18 H s       :     0.842092  s :     0.842092

 19 H s       :     0.839882  s :     0.839882

 20 H s       :     0.813401  s :     0.813401

 21 H s       :     0.843910  s :     0.843910

 22 H s       :     0.838451  s :     0.838451

 23 H s       :     0.824752  s :     0.824752

 24 H s       :     0.683688  s :     0.683688

 25 H s       :     0.624751  s :     0.624751

 26 H s       :     0.799900  s :     0.799900

 27 H s       :     0.839018  s :     0.839018

 28 H s       :     0.617841  s :     0.617841

 29 H s       :     0.821608  s :     0.821608

 30 H s       :     0.812876  s :     0.812876

 31 H s       :     0.598119  s :     0.598119



                      *****************************
                      * MAYER POPULATION ANALYSIS *
                      *****************************

  NA   - Mulliken gross atomic population
  ZA   - Total nuclear charge
  QA   - Mulliken gross atomic charge
  VA   - Mayer's total valence
  BVA  - Mayer's bonded valence
  FA   - Mayer's free valence

  ATOM       NA         ZA         QA         VA         BVA        FA
  0 O      8.6070     8.0000    -0.6070     1.7803     1.7803    -0.0000
  1 O      8.5978     8.0000    -0.5978     1.7119     1.7119    -0.0000
  2 O      8.4845     8.0000    -0.4845     2.0690     2.0690    -0.0000
  3 O      8.4329     8.0000    -0.4329     1.8902     1.8902    -0.0000
  4 O      8.4454     8.0000    -0.4454     1.9926     1.9926     0.0000
  5 N      7.2806     7.0000    -0.2806     2.9240     2.9240    -0.0000
  6 C      5.7927     6.0000     0.2073     3.5342     3.5342    -0.0000
  7 C      6.0905     6.0000    -0.0905     3.3712     3.3712    -0.0000
  8 C      6.2883     6.0000    -0.2883     3.6670     3.6670    -0.0000
  9 C      6.4995     6.0000    -0.4995     3.6447     3.6447    -0.0000
 10 C      6.5030     6.0000    -0.5030     3.7304     3.7304     0.0000
 11 C      5.7741     6.0000     0.2259     3.9574     3.9574     0.0000
 12 C      6.2606     6.0000    -0.2606     3.7179     3.7179    -0.0000
 13 C      6.3447     6.0000    -0.3447     3.7189     3.7189     0.0000
 14 C      5.6044     6.0000     0.3956     3.8515     3.8515    -0.0000
 15 H      0.8020     1.0000     0.1980     0.9335     0.9335    -0.0000
 16 H      0.8418     1.0000     0.1582     0.9443     0.9443    -0.0000
 17 H      0.8253     1.0000     0.1747     0.9674     0.9674     0.0000
 18 H      0.8379     1.0000     0.1621     0.9554     0.9554     0.0000
 19 H      0.8356     1.0000     0.1644     0.9545     0.9545    -0.0000
 20 H      0.8061     1.0000     0.1939     0.9776     0.9776     0.0000
 21 H      0.8229     1.0000     0.1771     0.9463     0.9463     0.0000
 22 H      0.8319     1.0000     0.1681     0.9550     0.9550    -0.0000
 23 H      0.8183     1.0000     0.1817     0.9641     0.9641     0.0000
 24 H      0.6487     1.0000     0.3513     0.8728     0.8728    -0.0000
 25 H      0.5698     1.0000     0.4302     0.8279     0.8279     0.0000
 26 H      0.7980     1.0000     0.2020     0.9725     0.9725    -0.0000
 27 H      0.7956     1.0000     0.2044     0.9314     0.9314     0.0000
 28 H      0.5731     1.0000     0.4269     0.8376     0.8376     0.0000
 29 H      0.7997     1.0000     0.2003     0.9448     0.9448     0.0000
 30 H      0.8168     1.0000     0.1832     0.9585     0.9585     0.0000
 31 H      0.5705     1.0000     0.4295     0.8306     0.8306     0.0000

  Mayer bond orders larger than 0.100000
B(  0-O ,  6-C ) :  -0.1053 B(  0-O ,  7-C ) :   1.0814 B(  0-O , 25-H ) :   0.7174 
B(  1-O ,  8-C ) :   0.9102 B(  1-O , 28-H ) :   0.6899 B(  1-O , 31-H ) :   0.1716 
B(  2-O ,  7-C ) :  -0.1068 B(  2-O , 11-C ) :   1.9135 B(  2-O , 28-H ) :   0.1030 
B(  3-O , 14-C ) :   1.2231 B(  3-O , 31-H ) :   0.6406 B(  4-O , 14-C ) :   1.8230 
B(  5-N , 11-C ) :   1.2770 B(  5-N , 12-C ) :   0.8839 B(  5-N , 24-H ) :   0.7986 
B(  6-C ,  7-C ) :   0.7936 B(  6-C ,  8-C ) :   0.9058 B(  6-C ,  9-C ) :   0.9241 
B(  6-C , 10-C ) :   1.0151 B(  7-C , 11-C ) :   0.7576 B(  7-C , 15-H ) :   0.9346 
B(  8-C , 16-H ) :   0.9465 B(  8-C , 17-H ) :   0.9269 B(  9-C , 18-H ) :   0.9521 
B(  9-C , 19-H ) :   0.9401 B(  9-C , 20-H ) :   0.9547 B( 10-C , 21-H ) :   0.9542 
B( 10-C , 22-H ) :   0.9469 B( 10-C , 23-H ) :   0.9510 B( 12-C , 13-C ) :   0.9510 
B( 12-C , 26-H ) :   0.9278 B( 12-C , 27-H ) :   0.9349 B( 13-C , 14-C ) :   0.9080 
B( 13-C , 29-H ) :   0.9627 B( 13-C , 30-H ) :   0.9384 


------------------
HIRSHFELD ANALYSIS
------------------

Total integrated alpha density =     58.999953105
Total integrated beta density  =     58.999953105

  ATOM     CHARGE      SPIN    
   0 O   -0.223398    0.000000
   1 O   -0.215542    0.000000
   2 O   -0.256962    0.000000
   3 O   -0.168949    0.000000
   4 O   -0.261467    0.000000
   5 N   -0.110861    0.000000
   6 C    0.013287    0.000000
   7 C    0.059784    0.000000
   8 C    0.028600    0.000000
   9 C   -0.085675    0.000000
  10 C   -0.080048    0.000000
  11 C    0.169597    0.000000
  12 C    0.021307    0.000000
  13 C   -0.044276    0.000000
  14 C    0.215905    0.000000
  15 H    0.043441    0.000000
  16 H    0.029017    0.000000
  17 H    0.016031    0.000000
  18 H    0.026786    0.000000
  19 H    0.028181    0.000000
  20 H    0.023575    0.000000
  21 H    0.027490    0.000000
  22 H    0.029415    0.000000
  23 H    0.024988    0.000000
  24 H    0.118736    0.000000
  25 H    0.130466    0.000000
  26 H    0.043422    0.000000
  27 H    0.042189    0.000000
  28 H    0.122703    0.000000
  29 H    0.040796    0.000000
  30 H    0.047210    0.000000
  31 H    0.144344    0.000000

  TOTAL   0.000094    0.000000

-------
TIMINGS
-------

Total SCF time: 0 days 0 hours 0 min 9 sec 

Total time                  ....       9.490 sec
Sum of individual times     ....       9.395 sec  ( 99.0%)

SCF preparation             ....       0.177 sec  (  1.9%)
Fock matrix formation       ....       7.753 sec  ( 81.7%)
  Startup                   ....       0.018 sec  (  0.2% of F)
  Split-RI-J                ....       1.284 sec  ( 16.6% of F)
  XC integration            ....       6.153 sec  ( 79.4% of F)
    XC Preparation          ....       0.000 sec  (  0.0% of XC)
    Basis function eval.    ....       1.476 sec  ( 24.0% of XC)
    Density eval.           ....       1.622 sec  ( 26.4% of XC)
    XC-Functional eval.     ....       0.136 sec  (  2.2% of XC)
    XC-Potential eval.      ....       1.423 sec  ( 23.1% of XC)
Diagonalization             ....       0.000 sec  (  0.0%)
Density matrix formation    ....       0.064 sec  (  0.7%)
Total Energy calculation    ....       0.032 sec  (  0.3%)
Population analysis         ....       0.749 sec  (  7.9%)
Orbital Transformation      ....       0.053 sec  (  0.6%)
Orbital Orthonormalization  ....       0.000 sec  (  0.0%)
DIIS solution               ....       0.424 sec  (  4.5%)
SOSCF solution              ....       0.143 sec  (  1.5%)
Finished LeanSCF after   9.5 sec

Maximum memory used throughout the entire LEANSCF-calculation: 66.9 MB


           ************************************************************
           *        Program running with 16 parallel MPI-processes    *
           *              working on a common directory               *
           ************************************************************

------------------------------------------------------------------------------
                         ORCA PROPERTY INTEGRAL CALCULATIONS
------------------------------------------------------------------------------

GBWName                                   ... m1_00_Vitamin_B5-GFN1_0000-B97-3C-TZ.gbw
Number of atoms                           ...     32
Number of basis functions                 ...    361
Max core memory                           ...   6000 MB

Dipole integrals                          ... YES
Quadrupole integrals                      ...  NO
Linear momentum integrals                 ...  NO
Angular momentum integrals                ...  NO
Higher moments length integrals           ...  NO
Higher moments velocity integrals         ...  NO
Kinetic energy integrals                  ...  NO
GIAO right hand sides                     ...  NO
GIAO dipole derivative integrals          ...  NO
SOC integrals                             ...  NO
EPR diamagnetic integrals (GIAO)          ...  NO
EPR gauge integrals                       ...  NO
Field gradient integrals                  ...  NO (   0 nuclei)
Spin-dipole/Fermi contact integrals       ...  NO (   0 nuclei)
Contact density integrals                 ...  NO (   0 nuclei)
Nucleus-orbit integrals                   ...  NO (   0 nuclei)
Geometric perturbations                   ...  NO (  32 nuclei)

Choice of electric origin   ... Center of mass
Position of electric origin ... (  6.9233, -0.5899, -8.9749) 
Choice of magnetic origin   ... GIAO
Position of magnetic origin ... (  0.0000,  0.0000,  0.0000) 

Calculating integrals                     ... Electric Dipole (Length)     done (  0.0 sec)

Property integrals calculated in   0.0 sec

Maximum memory used throughout the entire PROPINT-calculation: 26.1 MB


-------------------------------------------------------------------------------
                          DFT DISPERSION CORRECTION                            
                                                                               
                              DFTD3 V3.1  Rev 1                                
                          USING Becke-Johnson damping                          
-------------------------------------------------------------------------------
The B97-3c composite method is recognized
Using three-body term ABC
[...]
 25:    437.34   0.001524    7.70  0.001087  (-0.027459 -0.004485  0.017700)
 26:    488.77   0.000942    4.76  0.000601  ( 0.023483 -0.005917 -0.003831)
 27:    518.79   0.002106   10.64  0.001267  (-0.029648 -0.018351 -0.007155)
 28:    533.99   0.002900   14.66  0.001695  ( 0.037902  0.014599  0.006722)
 29:    573.80   0.020616  104.19  0.011212  (-0.060808 -0.086026 -0.010689)
 30:    589.43   0.007375   37.27  0.003905  ( 0.060351 -0.016177  0.000920)
 31:    609.25   0.005711   28.86  0.002925  ( 0.034041 -0.020149  0.036882)
 32:    639.75   0.041835  211.42  0.020407  ( 0.141968  0.014849  0.005617)
 33:    720.26   0.000668    3.38  0.000290  ( 0.002962  0.015521 -0.006314)
 34:    754.93   0.003863   19.52  0.001597  (-0.037007 -0.014719  0.003248)
 35:    788.85   0.014812   74.85  0.005859  ( 0.019030 -0.033262 -0.066265)
 36:    820.86   0.004413   22.30  0.001678  ( 0.008310 -0.021235 -0.034025)
 37:    833.23   0.001353    6.84  0.000507  (-0.019891 -0.010270 -0.002365)
 38:    874.86   0.004537   22.93  0.001619  ( 0.030486  0.003828 -0.025971)
 39:    885.66   0.012597   63.66  0.004438  ( 0.027036 -0.022261 -0.056674)
 40:    907.38   0.005659   28.60  0.001946  (-0.021663  0.020046  0.032787)
 41:    927.67   0.015607   78.87  0.005250  (-0.032257  0.039156  0.051732)
 42:    940.61   0.003346   16.91  0.001110  ( 0.002574  0.029989  0.014282)
 43:    955.17   0.000487    2.46  0.000159  (-0.004873 -0.008416  0.008025)
 44:    967.37   0.000420    2.12  0.000135  (-0.007004 -0.008111 -0.004546)
 45:   1003.59   0.000636    3.21  0.000198  (-0.006455 -0.010927 -0.006054)
 46:   1033.76   0.002979   15.06  0.000899  (-0.021330  0.015971 -0.013762)
 47:   1047.21   0.010368   52.39  0.003089  ( 0.029129  0.036806 -0.029772)
 48:   1066.82   0.004878   24.65  0.001427  (-0.028501 -0.008947 -0.023121)
 49:   1074.09   0.002336   11.80  0.000679  (-0.020863  0.004914  0.014808)
 50:   1082.53   0.014082   71.16  0.004059  (-0.046460  0.018020 -0.039700)
 51:   1179.96   0.001742    8.80  0.000461  ( 0.013958 -0.012441  0.010537)
 52:   1186.35   0.002226   11.25  0.000586  (-0.002976 -0.010888  0.021404)
 53:   1201.23   0.004024   20.34  0.001045  (-0.024632 -0.010715  0.017998)
 54:   1230.12   0.001085    5.49  0.000275  (-0.004481  0.007275  0.014225)
 55:   1239.56   0.009470   47.86  0.002384  ( 0.041002 -0.003380 -0.026296)
 56:   1251.53   0.002031   10.27  0.000507  (-0.001138 -0.018293 -0.013060)
 57:   1284.30   0.006007   30.36  0.001460  (-0.020734  0.000067 -0.032089)
 58:   1298.11   0.020227  102.22  0.004863  ( 0.049895  0.031211  0.037403)
 59:   1316.26   0.000345    1.75  0.000082  (-0.001083 -0.004151  0.007967)
 60:   1335.03   0.000264    1.34  0.000062  (-0.002069 -0.001999  0.007313)
 61:   1341.31   0.004604   23.27  0.001071  (-0.024908 -0.016669 -0.013146)
 62:   1356.11   0.003318   16.77  0.000764  (-0.000114  0.011877  0.024949)
 63:   1375.25   0.003026   15.29  0.000687  ( 0.013038  0.001215  0.022696)
 64:   1400.50   0.001402    7.08  0.000312  ( 0.006219 -0.011904  0.011487)
 65:   1422.05   0.002640   13.34  0.000579  ( 0.023926  0.002636 -0.000147)
 66:   1441.41   0.008612   43.52  0.001864  ( 0.018221 -0.017510  0.035012)
 67:   1456.28   0.001067    5.39  0.000229  (-0.007761 -0.005531 -0.011740)
 68:   1470.12   0.004622   23.36  0.000981  (-0.012095  0.001343  0.028861)
 69:   1481.54   0.005606   28.33  0.001181  ( 0.031475 -0.003498  0.013339)
 70:   1487.79   0.000897    4.53  0.000188  (-0.004992  0.005811 -0.011378)
 71:   1495.92   0.001403    7.09  0.000293  (-0.002321 -0.014739  0.008376)
 72:   1499.04   0.000847    4.28  0.000176  (-0.007830  0.002166 -0.010503)
 73:   1509.88   0.002554   12.90  0.000528  (-0.000713  0.011072  0.020116)
 74:   1517.69   0.001220    6.16  0.000251  ( 0.005595 -0.005874  0.013601)
 75:   1530.05   0.004509   22.79  0.000920  ( 0.020076  0.021357  0.007770)
 76:   1540.13   0.037616  190.09  0.007622  (-0.085156 -0.018155  0.006366)
 77:   1689.97   0.029665  149.92  0.005478  ( 0.061655 -0.005578  0.040564)
 78:   1723.98   0.059549  300.94  0.010779  (-0.012715 -0.050137  0.090021)
 79:   2986.17   0.015060   76.11  0.001574  (-0.021203 -0.033528  0.000437)
 80:   2989.61   0.002041   10.31  0.000213  (-0.011975  0.002092  0.008076)
 81:   3001.85   0.004548   22.99  0.000473  (-0.016747  0.013274 -0.004024)
 82:   3009.65   0.014204   71.78  0.001473  (-0.033633 -0.006919  0.017140)
 83:   3024.56   0.002346   11.86  0.000242  (-0.012006  0.006129 -0.007768)
 84:   3032.85   0.003337   16.86  0.000343  (-0.005835 -0.017569 -0.000766)
 85:   3040.63   0.010546   53.29  0.001082  (-0.030394 -0.012534  0.001201)
 86:   3061.50   0.002903   14.67  0.000296  ( 0.003719  0.012123  0.011625)
 87:   3073.96   0.008594   43.43  0.000872  (-0.008067 -0.021482 -0.018597)
 88:   3091.08   0.002652   13.40  0.000268  (-0.012616  0.002952 -0.009993)
 89:   3098.56   0.003655   18.47  0.000368  (-0.012677  0.013577 -0.004802)
 90:   3111.69   0.103950  525.32  0.010425  (-0.101962 -0.005100  0.001625)
 91:   3116.67   0.031802  160.72  0.003184  ( 0.054392  0.005981 -0.013784)
 92:   3124.39   0.001821    9.20  0.000182  (-0.006241  0.006592 -0.009972)
 93:   3481.56   0.058752  296.91  0.005266  ( 0.038438  0.058927  0.017783)
 94:   3502.36   0.010934   55.26  0.000974  (-0.004898 -0.023764  0.019635)
 95:   3587.73   0.034303  173.35  0.002984  ( 0.039593 -0.023127 -0.029686)

* The epsilon (eps) is given for a Dirac delta lineshape.
** The dipole moment derivative (T) already includes vibrational overlap.

The first frequency considered to be a vibration is 6
The total number of vibrations considered is 90


--------------------------
THERMOCHEMISTRY AT 298.15K
--------------------------

Temperature         ...   298.15 K
Pressure            ...     1.00 atm
Total Mass          ...   219.24 AMU
Quasi RRHO          ...     True
Cut-Off Frequency   ...     1.00 cm^-1

Throughout the following assumptions are being made:
  (1) The electronic state is orbitally nondegenerate
  (2) There are no thermally accessible electronically excited states
  (3) Hindered rotations indicated by low frequency modes are not
      treated as such but are treated as vibrations and this may
      cause some error
  (4) All equations used are the standard statistical mechanics
      equations for an ideal gas
  (5) All vibrations are strictly harmonic

freq.      81.60  E(vib)   ...       0.48 
freq.      93.75  E(vib)   ...       0.47 
freq.     111.16  E(vib)   ...       0.45 
freq.     125.49  E(vib)   ...       0.43 
freq.     134.36  E(vib)   ...       0.42 
freq.     155.17  E(vib)   ...       0.40 
freq.     191.93  E(vib)   ...       0.36 
freq.     204.85  E(vib)   ...       0.35 
freq.     214.01  E(vib)   ...       0.34 
freq.     227.51  E(vib)   ...       0.33 
freq.     243.68  E(vib)   ...       0.31 
freq.     259.53  E(vib)   ...       0.30 
freq.     284.42  E(vib)   ...       0.28 
freq.     310.93  E(vib)   ...       0.26 
freq.     315.99  E(vib)   ...       0.25 
freq.     343.73  E(vib)   ...       0.23 
freq.     376.58  E(vib)   ...       0.21 
freq.     389.13  E(vib)   ...       0.20 
freq.     424.96  E(vib)   ...       0.18 
freq.     437.34  E(vib)   ...       0.17 
freq.     488.77  E(vib)   ...       0.15 
freq.     518.79  E(vib)   ...       0.13 
freq.     533.99  E(vib)   ...       0.13 
freq.     573.80  E(vib)   ...       0.11 
freq.     589.43  E(vib)   ...       0.10 
freq.     609.25  E(vib)   ...       0.10 
freq.     639.75  E(vib)   ...       0.09 
freq.     720.26  E(vib)   ...       0.07 
freq.     754.93  E(vib)   ...       0.06 
freq.     788.85  E(vib)   ...       0.05 
freq.     820.86  E(vib)   ...       0.05 
freq.     833.23  E(vib)   ...       0.04 
freq.     874.86  E(vib)   ...       0.04 
freq.     885.66  E(vib)   ...       0.04 
freq.     907.38  E(vib)   ...       0.03 
freq.     927.67  E(vib)   ...       0.03 
freq.     940.61  E(vib)   ...       0.03 
freq.     955.17  E(vib)   ...       0.03 
freq.     967.37  E(vib)   ...       0.03 
freq.    1003.59  E(vib)   ...       0.02 
freq.    1033.76  E(vib)   ...       0.02 
freq.    1047.21  E(vib)   ...       0.02 
freq.    1066.82  E(vib)   ...       0.02 
freq.    1074.09  E(vib)   ...       0.02 
freq.    1082.53  E(vib)   ...       0.02 
freq.    1179.96  E(vib)   ...       0.01 
freq.    1186.35  E(vib)   ...       0.01 
freq.    1201.23  E(vib)   ...       0.01 
freq.    1230.12  E(vib)   ...       0.01 
freq.    1239.56  E(vib)   ...       0.01 
freq.    1251.53  E(vib)   ...       0.01 
freq.    1284.30  E(vib)   ...       0.01 
freq.    1298.11  E(vib)   ...       0.01 
freq.    1316.26  E(vib)   ...       0.01 
freq.    1335.03  E(vib)   ...       0.01 
freq.    1341.31  E(vib)   ...       0.01 
freq.    1356.11  E(vib)   ...       0.01 
freq.    1375.25  E(vib)   ...       0.01 
freq.    1400.50  E(vib)   ...       0.00 
freq.    1422.05  E(vib)   ...       0.00 
freq.    1441.41  E(vib)   ...       0.00 
freq.    1456.28  E(vib)   ...       0.00 
freq.    1470.12  E(vib)   ...       0.00 
freq.    1481.54  E(vib)   ...       0.00 
freq.    1487.79  E(vib)   ...       0.00 
freq.    1495.92  E(vib)   ...       0.00 
freq.    1499.04  E(vib)   ...       0.00 
freq.    1509.88  E(vib)   ...       0.00 
freq.    1517.69  E(vib)   ...       0.00 
freq.    1530.05  E(vib)   ...       0.00 
freq.    1540.13  E(vib)   ...       0.00 
freq.    1689.97  E(vib)   ...       0.00 
freq.    1723.98  E(vib)   ...       0.00 
freq.    2986.17  E(vib)   ...       0.00 
freq.    2989.61  E(vib)   ...       0.00 
freq.    3001.85  E(vib)   ...       0.00 
freq.    3009.65  E(vib)   ...       0.00 
freq.    3024.56  E(vib)   ...       0.00 
freq.    3032.85  E(vib)   ...       0.00 
freq.    3040.63  E(vib)   ...       0.00 
freq.    3061.50  E(vib)   ...       0.00 
freq.    3073.96  E(vib)   ...       0.00 
freq.    3091.08  E(vib)   ...       0.00 
freq.    3098.56  E(vib)   ...       0.00 
freq.    3111.69  E(vib)   ...       0.00 
freq.    3116.67  E(vib)   ...       0.00 
freq.    3124.39  E(vib)   ...       0.00 
freq.    3481.56  E(vib)   ...       0.00 
freq.    3502.36  E(vib)   ...       0.00 
freq.    3587.73  E(vib)   ...       0.00 

------------
INNER ENERGY
------------

The inner energy is: U= E(el) + E(ZPE) + E(vib) + E(rot) + E(trans)
    E(el)   - is the total energy from the electronic structure calculation
              = E(kin-el) + E(nuc-el) + E(el-el) + E(nuc-nuc)
    E(ZPE)  - the the zero temperature vibrational energy from the frequency calculation
    E(vib)  - the the finite temperature correction to E(ZPE) due to population
              of excited vibrational states
    E(rot)  - is the rotational thermal energy
    E(trans)- is the translational thermal energy

Summary of contributions to the inner energy U:
Electronic energy                ...   -783.77365600 Eh
Zero point energy                ...      0.26919062 Eh     168.92 kcal/mol
Thermal vibrational correction   ...      0.01267603 Eh       7.95 kcal/mol
Thermal rotational correction    ...      0.00141627 Eh       0.89 kcal/mol
Thermal translational correction ...      0.00141627 Eh       0.89 kcal/mol
-----------------------------------------------------------------------
Total thermal energy                   -783.48895681 Eh


Summary of corrections to the electronic energy:
(perhaps to be used in another calculation)
Total thermal correction                  0.01550857 Eh       9.73 kcal/mol
Non-thermal (ZPE) correction              0.26919062 Eh     168.92 kcal/mol
-----------------------------------------------------------------------
Total correction                          0.28469918 Eh     178.65 kcal/mol


--------
ENTHALPY
--------

The enthalpy is H = U + kB*T
                kB is Boltzmann's constant
Total thermal energy              ...   -783.48895681 Eh 
Thermal Enthalpy correction       ...      0.00094421 Eh       0.59 kcal/mol
-----------------------------------------------------------------------
Total Enthalpy                    ...   -783.48801260 Eh


Note: Only C1 symmetry has been detected, increase convergence thresholds 
      if your molecule has a higher symmetry. Symmetry factor of 1.0 is   
      used for the rotational entropy correction. 
 

Note: Rotational entropy computed according to Herzberg 
Infrared and Raman Spectra, Chapter V,1, Van Nostrand Reinhold, 1945 
Point Group:  C1, Symmetry Number:   1  
Rotational constants in cm-1:     0.032485     0.016026     0.015076 

Vibrational entropy computed according to the QRRHO of S. Grimme
Chem.Eur.J. 2012 18 9955 using a reference frequency of 100.0 cm-1


-------
ENTROPY
-------

The entropy contributions are T*S = T*(S(el)+S(vib)+S(rot)+S(trans))
     S(el)   - electronic entropy
     S(vib)  - vibrational entropy
     S(rot)  - rotational entropy
     S(trans)- translational entropy
The entropies will be listed as multiplied by the temperature to get
units of energy

Electronic entropy                ...      0.00000000 Eh      0.00 kcal/mol
Vibrational entropy               ...      0.02158610 Eh     13.55 kcal/mol
Rotational entropy                ...      0.01506034 Eh      9.45 kcal/mol
Translational entropy             ...      0.01998299 Eh     12.54 kcal/mol
-----------------------------------------------------------------------
Final entropy term                ...      0.05662943 Eh     35.54 kcal/mol

In case the symmetry of your molecule has not been determined correctly
or in case you have a reason to use a different symmetry number we print 
out the resulting rotational entropy values for sn=1,12:

 non-linear molecules -----------------------------------
|  sn= 1 | S(rot)=       0.01506034 Eh      9.45 kcal/mol|
|  sn= 2 | S(rot)=       0.01440588 Eh      9.04 kcal/mol|
|  sn= 3 | S(rot)=       0.01402305 Eh      8.80 kcal/mol|
|  sn= 4 | S(rot)=       0.01375142 Eh      8.63 kcal/mol|
|  sn= 5 | S(rot)=       0.01354074 Eh      8.50 kcal/mol|
|  sn= 6 | S(rot)=       0.01336859 Eh      8.39 kcal/mol|
|  sn= 7 | S(rot)=       0.01322305 Eh      8.30 kcal/mol|
|  sn= 8 | S(rot)=       0.01309697 Eh      8.22 kcal/mol|
|  sn= 9 | S(rot)=       0.01298576 Eh      8.15 kcal/mol|
|  sn=10 | S(rot)=       0.01288628 Eh      8.09 kcal/mol|
|  sn=11 | S(rot)=       0.01279629 Eh      8.03 kcal/mol|
|  sn=12 | S(rot)=       0.01271414 Eh      7.98 kcal/mol|
 linear molecules ---------------------------------------
|  Dinfh | S(rot)=       0.00928634 Eh      5.83 kcal/mol|
|  Cinfv | S(rot)=       0.00994080 Eh      6.24 kcal/mol|
 --------------------------------------------------------


-------------------
GIBBS FREE ENERGY
-------------------

The Gibbs free energy is G = H - T*S

Total enthalpy                    ...   -783.48801260 Eh 
Total entropy correction          ...     -0.05662943 Eh    -35.54 kcal/mol
-----------------------------------------------------------------------
Final Gibbs free energy         ...   -783.54464203 Eh

For completeness - the Gibbs free energy minus the electronic energy
G-E(el)                           ...      0.22901397 Eh    143.71 kcal/mol


Maximum memory used throughout the entire PROP-calculation: 102.6 MB

--------------------------------
SUGGESTED CITATIONS FOR THIS RUN
--------------------------------

Below you find a list of papers that are relevant to this ORCA run
We neither can nor want to force you to cite these papers, but we appreciate if you do
You receive ORCA, which is the product of decades of hard work by many enthusiastic individuals, for free
The only thing we kindly ask in return is that you cite our papers,
We deeply appreciate it, if you show your appreciation for ORCA by not just citing the generic ORCA reference.

Please note that relegating all ORCA citations to the supporting information does *not* help us.
SI sections are not indexed - citations you put there will not count into any citation statistics
But we need these citations in order to attract the funding resources that allow us to do what we are doing

Therefore, if you are a happy ORCA user, please consider citing a few of the papers listed below in the main body of your paper

In addition to the list printed below, the program has created the file m1_00_Vitamin_B5-GFN1_0000-B97-3C-TZ.bibtex that contains the list in bibtex format
You can import this file easily into all common literature databanks and citation aid programs


List of essential papers. We consider these as the minimum necessary citations

  1. Neese,F.
     Software update: the ORCA program system, version 5.0
     WIRES Comput. Molec. Sci., 2022 12(1)e1606
     doi.org/10.1002/wcms.1606

List of papers to cite with high priority. The work reported in these papers was absolutely
necessary for this run to complete.
Our perspective: the developers of density functionals and basis sets usually get cited in chemistry papers
Good! But without the algorithms to do something with them, the functionals or basis sets would not do anything.
Hence, in our opinion, the algorithm design and method developments papers are equally worthy of getting cited

  1. Neese,F.
     An improvement of the resolution of the identity approximation for the formation of the Coulomb matrix
     J. Comp. Chem., 2003 24(14)1740-1747
     doi.org/10.1002/jcc.10318
  2. Bykov,D.; Petrenko,T.; Izsak,R.; Kossmann,S.; Becker,U.; Valeev,E.; Neese,F.
     Efficient implementation of the analytic second derivatives of Hartree-Fock and hybrid DFT energies: a detailed analysis of different approximations
     Molec. Phys., 2015 113 1961-1977
     doi.org/10.1080/00268976.2015.1025114
  3. Neese,F.
     The SHARK Integral Generation and Digestion System
     J. Comp. Chem., 2022  1-16
     doi.org/10.1002/jcc.26942
  4. Grimme,S.; Antony,J.; Ehrlich,S.; Krieg,H.
     A consistent and accurate ab initio parametrization of density functional dispersion correction (DFT-D) for the 94 elements H-Pu
     J. Chem. Phys., 2010 132 154104
     doi.org/10.1063/1.3382344
  5. Grimme,S.; Ehrlich,S.; Goerigk,L.
     Effect of the damping function in dispersion corrected density functional theory
     J. Comput. Chem., 2011 32(7)1456-1465
     doi.org/10.1002/jcc.21759

List of suggested additional citations. These are papers that are important in the 'surrounding' of 
of this run, or papers that preceded the highly important papers. If you like your results we are grateful for a citation.

  1. Neese,F.
     The ORCA program system
     WIRES Comput. Molec. Sci., 2012 2(1)73-78
     doi.org/10.1002/wcms.81
  2. Neese,F.
     Software update: the ORCA program system, version 4.0
     WIRES Comput. Molec. Sci., 2018 8(1)1-6
     doi.org/10.1002/wcms.1327
  3. Neese,F.; Wennmohs,F.; Becker,U.; Riplinger,C.
     The ORCA quantum chemistry program package
     J. Chem. Phys., 2020 152 Art. No. L224108
     doi.org/10.1063/5.0004608

List of optional additional citations

  1. Neese,F.
     Approximate second-order SCF convergence for spin unrestricted wavefunctions
     Chem. Phys. Lett., 2000 325(1-3)93-98
     doi.org/10.1016/s0009-2614(00)00662-x

Timings for individual modules:

Sum of individual times          ...      359.797 sec (=   5.997 min)
Startup calculation              ...       40.575 sec (=   0.676 min)  11.3 %
SCF iterations                   ...       83.085 sec (=   1.385 min)  23.1 %
Property integrals               ...       86.106 sec (=   1.435 min)  23.9 %
SCF Response                     ...       66.478 sec (=   1.108 min)  18.5 %
Property calculations            ...       33.091 sec (=   0.552 min)   9.2 %
SCF Gradient evaluation          ...       50.359 sec (=   0.839 min)  14.0 %
Geometry relaxation              ...        0.104 sec (=   0.002 min)   0.0 %
                             ****ORCA TERMINATED NORMALLY****
TOTAL RUN TIME: 0 days 0 hours 6 minutes 2 seconds 654 msec
