
                                 *****************
                                 * O   R   C   A *
                                 *****************

                                            #,                                       
                                            ###                                      
                                            ####                                     
                                            #####                                    
                                            ######                                   
                                           ########,                                 
                                     ,,################,,,,,                         
                               ,,#################################,,                 
                          ,,##########################################,,             
                       ,#########################################, ''#####,          
                    ,#############################################,,   '####,        
                  ,##################################################,,,,####,       
                ,###########''''           ''''###############################       
              ,#####''   ,,,,##########,,,,          '''####'''          '####       
            ,##' ,,,,###########################,,,                        '##       
           ' ,,###''''                  '''############,,,                           
         ,,##''                                '''############,,,,        ,,,,,,###''
      ,#''                                            '''#######################'''  
     '                                                          ''''####''''         
             ,#######,   #######,   ,#######,      ##                                
            ,#'     '#,  ##    ##  ,#'     '#,    #''#        ,####,   ,####,        
            ##       ##  ##   ,#'  ##            #'  '#       #'       #'  '#        
            ##       ##  #######   ##           ,######,      #####,   #    #        
            '#,     ,#'  ##    ##  '#,     ,#' ,#      #,     #,   #   #,  ,#        
             '#######'   ##     ##  '#######'  #'      '#     '####' # '####'        



                #########################################################
                #                        -***-                          #
                #          Department of theory and spectroscopy        #
                #                                                       #
                #                      Frank Neese                      #
                #                                                       #
                #     Directorship, Architecture, Infrastructure        #
                #                    SHARK, DRIVERS                     #
                #        Core code/Algorithms in most modules           #
                #                                                       #
                #        Max Planck Institute fuer Kohlenforschung      #
                #                Kaiser Wilhelm Platz 1                 #
                #                 D-45470 Muelheim/Ruhr                 #
                #                      Germany                          #
                #                                                       #
                #                  All rights reserved                  #
                #                        -***-                          #
                #########################################################


                         Program Version 6.0.1  -  RELEASE   -


 With contributions from (in alphabetic order):
[Max-Planck-Institut fuer Kohlenforschung]                               
  Daniel Aravena         : Magnetic Suceptibility                        
  Michael Atanasov       : Ab Initio Ligand Field Theory (pilot matlab implementation)
  Alexander A. Auer      : GIAO ZORA, VPT2 properties, NMR spectrum      
  Ute Becker             : All parallelization in ORCA, NUMFREQ, NUMCALC 
  Giovanni Bistoni       : ED, misc. LED, open-shell LED, HFLD           
  Martin Brehm           : Molecular dynamics                            
  Dmytro Bykov           : pre 5.0 version of the SCF Hessian            
  Marcos Casanova-Páez   : Triplet and SCS-CIS(D). UHF-(DLPNO)-IP/EA/STEOM-CCSD. UHF-CVS-IP/STEOM-CCSD   
  Vijay G. Chilkuri      : MRCI spin determinant printing, contributions to CSF-ICE 
  Pauline Colinet        : FMM embedding                                 
  Dipayan Datta          : RHF DLPNO-CCSD density                        
  Achintya Kumar Dutta   : EOM-CC, STEOM-CC                              
  Nicolas Foglia         : Exact transition moments, OPA infrastructure, MCD improvements    
  Dmitry Ganyushin       : Spin-Orbit,Spin-Spin,Magnetic field MRCI      
  Miquel Garcia-Rates    : C-PCM and meta-GGA Hessian, CCSD/C-PCM, Gaussian charge scheme 
  Tiago L. C. Gouveia    : GS-ROHF, GS-ROCIS                             
  Yang Guo               : DLPNO-NEVPT2, F12-NEVPT2, CIM, IAO-localization        
  Andreas Hansen         : Spin unrestricted coupled pair/coupled cluster methods 
  Ingolf Harden          : AUTO-CI MPn and infrastructure                
  Benjamin Helmich-Paris : MC-RPA, TRAH-(SCF,CASSCF), AVAS, COSX integrals, SCF dyn. polar. 
  Lee Huntington         : MR-EOM, pCC                                   
  Robert Izsak           : Overlap fitted RIJCOSX, COSX-SCS-MP3, EOM     
  Riya Kayal             : Wick's Theorem for AUTO-CI, AUTO-CI UHF-CCSDT 
  Emily Kempfer          : AUTO-CI, RHF CISDT and CCSDT                  
  Christian Kollmar      : KDIIS, OOCD, Brueckner-CCSD(T), CCSD density, CASPT2, CASPT2-K, improved NEVPT2 
  Axel Koslowski         : Symmetry handling                             
  Simone Kossmann        : meta-GGA functionals, TD-DFT gradient, OOMP2, (MP2 Hessian; deprecated post 5.0) 
  Lucas Lang             : DCDCAS                                        
  Marvin Lechner         : AUTO-CI (C++ implementation), FIC-MRCC        
  Spencer Leger          : CASSCF response                               
  Dagmar Lenk            : GEPOL surface, SMD, ORCA-2-JSON               
  Dimitrios Liakos       : Extrapolation schemes; Compound Job, initial MDCI parallelization 
  Dimitrios Manganas     : Further ROCIS development; embedding schemes. LFT, Crystal Embedding 
  Dimitrios Pantazis     : SARC Basis sets                               
  Anastasios Papadopoulos: AUTO-CI, single reference methods and gradients 
  Taras Petrenko         : pre 6.0 DFT Hessian and TD-DFT gradient, (ASA, deprecated), ECA, 1-Electron XAS/XES, NRVS 
  Peter Pinski           : DLPNO-MP2, DLPNO-MP2 Gradient                 
  Christoph Reimann      : Effective Core Potentials                     
  Marius Retegan         : Local ZFS, SOC                                
  Christoph Riplinger    : Optimizer, TS searches, QM/MM, DLPNO-CCSD(T), (RO)-DLPNO pert. Triples 
  Michael Roemelt        : Original ROCIS implementation                 
  Masaaki Saitow         : Open-shell DLPNO-CCSD energy and density      
  Barbara Sandhoefer     : DKH picture change effects                    
  Kantharuban Sivalingam : CASSCF convergence/infrastructure, NEVPT2 and variants, FIC-MRCI 
  Bernardo de Souza      : ESD, SOC TD-DFT                               
  Georgi L. Stoychev     : AutoAux, RI-MP2 NMR, DLPNO-MP2 response, X2C  
  Van Anh Tran           : RI-MP2 g-tensors                              
  Willem Van den Heuvel  : Paramagnetic NMR                              
  Zikuan Wang            : NOTCH, Electric field optimization            
  Frank Wennmohs         : Technical directorship and infrastructure     
  Hang Xu                : AUTO-CI-Response properties                   
                                                                         
[FACCTs GmbH]                                                            
  Markus Bursch, Miquel Garcia-Rates, Christoph Riplinger, Bernardo de Souza, Georgi L. Stoychev 
                                                                 
  APM, Basis sets (HGBS, AHGBS, def-TZVP (Ac-Lr), def2-XVPD (La-Lu)), CI-OPT, improved COSX, DLPNO-Multilevel,           
  DOCKER, DRACO, updates on ESD, GOAT, IRC, LR-CPCM, MBIS, meta-GGA TD-DFT gradient, ML-optimized integration grids, 
  MM, NACMEs, nearIR, NEB, NEB-TS, NL-DFT gradient (VV10), 2- and 3-layer-ONIOM, interface openCOSMO-RS, QMMM,   
  Crystal-QMMM, SF, symmetry and pop. for TD-DFT, r2SCAN hybrids, SOLVATOR                                   
                                                                         
[Other institutions]                                                     
  V. Asgeirsson          : NEB                                           
  Christoph Bannwarth    : sTDA-DFT, sTD-DFT, PBEh-3c, B97-3c, D3        
  Sebastian Ehlert       : rSCAN, r2SCAN, r2SCAN-3c, D4, dhf basis sets  
  Marvin Friede          : D4 for Fr, Ra, Ac-Lr                          
  Lars Goerigk           : TD-DFT with DH, B97 family of functionals     
  Stefan Grimme          : VdW corrections, initial TS optimization, DFT functionals, gCP, sTDA/sTD-DF 
  Waldemar Hujo          : DFT-NL                                        
  H. Jonsson             : NEB                                           
  Holger Kruse           : gCP                                           
  Marcel Mueller         : wB97X-3c, vDZP basis set                      
  Hagen Neugebauer       : wr2SCAN                                       
  Tobias Risthaus        : range-separated hybrid DFT                    
  Lukas Wittmann         : regularized MP2, r2SCAN double-hybrids, wr2SCAN        
                                                                         
We gratefully acknowledge several colleagues who have allowed us to      
interface, adapt or use parts of their codes:                            
  Ed Valeev, F. Pavosevic, A. Kumar             : LibInt (2-el integral package), F12 methods 
  Garnet Chan, S. Sharma, J. Yang, R. Olivares  : DMRG                   
  Ulf Ekstrom                                   : XCFun DFT Library      
  Mihaly Kallay                                 : mrcc  (arbitrary order and MRCC methods)
  Frank Weinhold                                : gennbo (NPA and NBO analysis)           
  Simon Mueller                                 : openCOSMO-RS                            
  Christopher J. Cramer and Donald G. Truhlar   : smd solvation model                     
  S Lehtola, MJT Oliveira, MAL Marques          : LibXC Library                           
  Liviu Ungur et al                             : ANISO software                          


 Your calculation uses the libint2 library for the computation of 2-el integrals
 For citations please refer to: http://libint.valeyev.net

 Your ORCA version has been built with support for libXC version: 6.2.2
 For citations please refer to: https://libxc.gitlab.io

 This ORCA versions uses:
   CBLAS   interface :  Fast vector & matrix operations
   LAPACKE interface :  Fast linear algebra routines
   SCALAPACK package :  Parallel linear algebra routines
   Shared memory     :  Shared parallel matrices
   BLAS/LAPACK       :  OpenBLAS 0.3.27  USE64BITINT DYNAMIC_ARCH NO_AFFINITY Zen SINGLE_THREADED
        Core in use  :  Zen
   Copyright (c) 2011-2014, The OpenBLAS Project


NOTE: MaxCore=6000 MB was set to SCF,MP2,MDCI,CIPSI,MRCI and CIS
      => If you want to overwrite this, your respective input block should be placed after the MaxCore statement
Your calculation utilizes the atom-pairwise dispersion correction
with the Becke-Johnson damping scheme (D3BJ)


Your calculation employs the composite approach B97-3c by Grimme and coworkers.
For the correct reference, please check the publication list of the Grimme group:
http://www.thch.uni-bonn.de/tc/index.php?section=publikationen&subsection=grimme#2017
   

XCFun DFT library Copyright 2009-2010 Ulf Ekstrom and contributors.
See http://admol.org/xcfun for more information.
This is free software; see the source code for copying conditions.
There is ABSOLUTELY NO WARRANTY; not even for MERCHANTABILITY or FITNESS FOR A PARTICULAR PURPOSE.
For details see the documentation.
Scientific users of this library should cite U. Ekstrom, L. Visscher, R. Bast, A. J. Thorvaldsen and K. Ruud;
J.Chem.Theor.Comp. 2010, DOI: 10.1021/ct100117s
XCFun Version 0.99 

================================================================================

----- Orbital basis set information -----
Your calculation utilizes the basis: def2-mTZVP
----- AuxJ basis set information -----
Your calculation utilizes the basis: def2-mTZVP/J
================================================================================
                                        WARNINGS
                       Please study these warnings very carefully!
================================================================================


WARNING: Geometry Optimization
  ===> : Switching off AutoStart
         For restart on a previous wavefunction, please use MOREAD

================================================================================
                                       INPUT FILE
================================================================================
NAME = m1_00_Vitamin_B5-GFN1_0005-B97-3C-TZ.inp
|  1> %pal nprocs 16 end
|  2> %MaxCore 6000
|  3> # put your comments here
|  4> ! B97-3C  OPT  FREQ DEFGRID3 NOTRAH
|  5> %scf MaxIter 800 end
|  6> %output
|  7> Print [P_Hirshfeld] 1
|  8> end
|  9> %geom
| 10> MaxIter 3000
| 11>  TolE 1e-6 #TolE 5e-6 Energy change (a.u.)
| 12>  TolRMSG 3e-5 #TolRMSG 1e-4 RMS gradient (a.u.)
| 13>  TolMaxG 1e-4 #TolMaxG 3e-3 Max. element of gradient (a.u.)
| 14>  TolRMSD 2e-3 #TolRMSD 2e-3 RMS displacement (a.u.)
| 15>  TolMaxD 4e-3 #TolMaxD 4e-3 Max. displacement (a.u.)
| 16> end
| 17> * xyz 0 1
| 18>  O -1.77291723240053 -1.48167435809059 8.33231499509632
| 19>  O -0.23272951709291 0.18182199304675 6.82297238235306
| 20>  O -2.73257604154955 -2.40658783979327 5.01629308390264
| 21>  O -3.96244323232192 2.57687916500749 5.55838484229832
| 22>  O -1.89275985705284 1.81718143474442 5.27235749530547
| 23>  N -3.51564622708586 -0.90256766838264 6.49740929218166
| 24>  C -0.18360051068721 -2.23309358933962 6.62316621406913
| 25>  C -1.63622854629673 -2.28044229098660 7.17996508043746
| 26>  C 0.06108367751302 -0.87954710503066 5.92639079206091
| 27>  C 0.04084542731468 -3.36921047012101 5.61889003337965
| 28>  C 0.80150788162328 -2.39153930206345 7.79138609622526
| 29>  C -2.66389371145933 -1.87713457598456 6.11266059268301
| 30>  C -4.46033446734117 -0.36468827837069 5.54272173797055
| 31>  C -3.74309321675369 0.48856651094030 4.47814396129791
| 32>  C -3.08068445888371 1.67376315035148 5.12353003534285
| 33>  H -1.87308196124579 -3.31518910506013 7.47127904021601
| 34>  H -0.57371362121573 -0.80151736463642 5.03175969635582
| 35>  H 1.11329817687175 -0.81956733777975 5.60469443472916
| 36>  H -0.13583237291714 -4.33350205343873 6.09605122480915
| 37>  H 1.06928070816005 -3.34584734900048 5.25591359778307
| 38>  H -0.62880991340628 -3.27815736150319 4.76558764530396
| 39>  H 1.82176852304117 -2.45488293056405 7.41141940460071
| 40>  H 0.57987744076627 -3.29878733086339 8.35380051530186
| 41>  H 0.73839494229071 -1.53929069342798 8.46683465121914
| 42>  H -3.34653651691821 -0.42175792835120 7.36842539718587
| 43>  H -1.25183863526575 -0.66845046388397 8.18325013433920
| 44>  H -4.95574802571290 -1.20054981317223 5.03917731794946
| 45>  H -5.20136568255279 0.23560508284376 6.07603301009355
| 46>  H -0.61872285376146 0.91947365879633 6.31817098935349
| 47>  H -4.48229833853209 0.84234948804283 3.75733536076394
| 48>  H -2.99194554006269 -0.11690396629796 3.96923930324828
| 49>  H -3.49042129706448 3.31844069237068 5.97254064214285
| 50> *
| 51> 
| 52> 
| 53> 
| 54> 
| 55>                          ****END OF INPUT****
================================================================================

                       *****************************
                       * Geometry Optimization Run *
                       *****************************

Geometry optimization settings:
Update method            Update   .... BFGS
Choice of coordinates    CoordSys .... (2022) Redundant Internals
Initial Hessian          InHess   .... Almloef's Model
Max. no of cycles        MaxIter  .... 3000

Convergence Tolerances:
Energy Change            TolE     ....  1.0000e-06 Eh
Max. Gradient            TolMAXG  ....  1.0000e-04 Eh/bohr
RMS Gradient             TolRMSG  ....  3.0000e-05 Eh/bohr
Max. Displacement        TolMAXD  ....  4.0000e-03 bohr
RMS Displacement         TolRMSD  ....  2.0000e-03 bohr
Strict Convergence                .... False

------------------------------------------------------------------------------
                        ORCA OPTIMIZATION COORDINATE SETUP
------------------------------------------------------------------------------

The optimization will be done in redundant internal coordinates (2022)
Making redundant internal coordinates   ...  (2022 redundants) done
Evaluating the initial hessian          ...  (Almloef) done
Evaluating the coordinates              ...  done
Calculating the B-matrix                .... done
Calculating the G-matrix                .... done
Diagonalizing the G-matrix              .... done
Small eigenvalue found = 9.223e-03
Small eigenvalue found = 1.427e-02
Small eigenvalue found = 2.244e-02
The first mode is                       ....   55
The number of degrees of freedom        ....   90

    -----------------------------------------------------------------
                    Redundant Internal Coordinates


    -----------------------------------------------------------------
         Definition                    Initial Value    Approx d2E/dq
    -----------------------------------------------------------------
      1. B(C   7,C   6)                  1.5564         0.339040   
      2. B(C   7,O   0)                  1.4088         0.522317   
      3. B(C   8,O   1)                  1.4201         0.501014   
      4. B(C   8,C   6)                  1.5419         0.357596   
      5. B(C   9,C   6)                  1.5329         0.369649   
      6. B(C  10,C   6)                  1.5363         0.365000   
      7. B(C  11,N   5)                  1.3503         0.647476   
      8. B(C  11,O   2)                  1.2195         1.047071   
      9. B(C  11,C   7)                  1.5355         0.366045   
     10. B(C  12,N   5)                  1.4468         0.454238   
     11. B(C  13,C  12)                  1.5414         0.358299   
     12. B(C  14,C  13)                  1.5033         0.412030   
     13. B(C  14,O   4)                  1.2058         1.101036   
     14. B(C  14,O   3)                  1.3350         0.684904   
     15. B(H  15,C   7)                  1.1008         0.346148   
     16. B(H  16,C   8)                  1.0997         0.347447   
     17. B(H  17,C   8)                  1.1019         0.344664   
     18. B(H  18,C   9)                  1.0903         0.359702   
     19. B(H  19,C   9)                  1.0909         0.358963   
     20. B(H  20,C   9)                  1.0885         0.362077   
     21. B(H  21,C  10)                  1.0906         0.359361   
     22. B(H  22,C  10)                  1.0902         0.359840   
     23. B(H  23,C  10)                  1.0893         0.361047   
     24. B(H  24,N   5)                  1.0092         0.434013   
     25. B(H  24,O   0)                  2.1281         0.007118   
     26. B(H  25,O   0)                  0.9773         0.487975   
     27. B(H  25,O   1)                  1.9005         0.016423   
     28. B(H  26,C  12)                  1.0944         0.354359   
     29. B(H  27,C  12)                  1.0927         0.356602   
     30. B(H  28,O   1)                  0.9736         0.494572   
     31. B(H  28,O   4)                  1.8769         0.017910   
     32. B(H  29,C  13)                  1.0914         0.358254   
     33. B(H  30,C  13)                  1.0908         0.359069   
     34. B(H  31,O   3)                  0.9717         0.498041   
     35. A(C   7,O   0,H  25)          107.1764         0.355559   
     36. A(C   8,O   1,H  28)          108.7193         0.353862   
     37. A(C  14,O   3,H  31)          109.5269         0.373734   
     38. A(C  12,N   5,H  24)          120.1204         0.340505   
     39. A(C  11,N   5,H  24)          118.9528         0.361514   
     40. A(C  11,N   5,C  12)          119.4844         0.408454   
     41. A(C   7,C   6,C   8)          109.6625         0.354751   
     42. A(C   7,C   6,C  10)          108.8620         0.355987   
     43. A(C   8,C   6,C   9)          109.3496         0.360002   
     44. A(C   7,C   6,C   9)          110.3951         0.356753   
     45. A(C   9,C   6,C  10)          109.1387         0.361262   
     46. A(C   8,C   6,C  10)          109.4146         0.359226   
     47. A(C  11,C   7,H  15)          106.6689         0.321151   
     48. A(C   6,C   7,C  11)          111.5911         0.356160   
     49. A(O   0,C   7,C  11)          110.7749         0.381188   
     50. A(O   0,C   7,H  15)          107.1959         0.338534   
     51. A(O   0,C   7,C   6)          111.4654         0.376163   
     52. A(C   6,C   7,H  15)          108.9111         0.317159   
     53. A(H  16,C   8,H  17)          108.0491         0.287236   
     54. A(O   1,C   8,H  17)          109.9498         0.335952   
     55. A(O   1,C   8,C   6)          109.7523         0.376921   
     56. A(C   6,C   8,H  16)          109.7733         0.320123   
     57. A(O   1,C   8,H  16)          109.9467         0.336402   
     58. A(C   6,C   8,H  17)          109.3440         0.319703   
     59. A(H  18,C   9,H  19)          108.5019         0.290645   
     60. A(C   6,C   9,H  19)          109.8871         0.323589   
     61. A(C   6,C   9,H  18)          110.1853         0.323698   
     62. A(H  19,C   9,H  20)          108.5035         0.290945   
     63. A(H  18,C   9,H  20)          108.5037         0.291039   
     64. A(C   6,C   9,H  20)          111.1931         0.324048   
     65. A(H  21,C  10,H  23)          108.4028         0.290866   
     66. A(C   6,C  10,H  23)          110.7120         0.323225   
     67. A(H  21,C  10,H  22)          108.7594         0.290713   
     68. A(C   6,C  10,H  22)          110.3497         0.323047   
     69. A(C   6,C  10,H  21)          109.9339         0.322977   
     70. A(H  22,C  10,H  23)          108.6283         0.290926   
     71. A(O   2,C  11,C   7)          123.2690         0.431000   
     72. A(O   2,C  11,N   5)          122.2769         0.474921   
     73. A(N   5,C  11,C   7)          114.4357         0.395745   
     74. A(N   5,C  12,C  13)          110.9601         0.370730   
     75. A(H  26,C  12,H  27)          109.7051         0.289663   
     76. A(C  13,C  12,H  27)          110.3995         0.321591   
     77. A(N   5,C  12,H  27)          108.9660         0.332403   
     78. A(C  13,C  12,H  26)          108.4009         0.321259   
     79. A(N   5,C  12,H  26)          108.3761         0.332056   
     80. A(H  29,C  13,H  30)          109.7680         0.290474   
     81. A(C  14,C  13,H  30)          109.5407         0.329440   
     82. A(C  12,C  13,H  30)          109.5968         0.321955   
     83. A(C  14,C  13,H  29)          109.0511         0.329316   
     84. A(C  12,C  13,H  29)          108.6887         0.321835   
     85. A(C  12,C  13,C  14)          110.1789         0.366865   
     86. A(O   4,C  14,C  13)          125.5116         0.444302   
     87. A(O   3,C  14,C  13)          112.4664         0.408105   
     88. A(O   3,C  14,O   4)          122.0088         0.484333   
     89. D(O   0,C   7,C   6,C   8)    -74.3897         0.009312   
     90. D(O   0,C   7,C   6,C   9)    165.0645         0.009312   
     91. D(C  11,C   7,C   6,C   9)    -70.4979         0.009312   
     92. D(C  11,C   7,O   0,H  25)    -85.3458         0.023487   
     93. D(C   6,C   7,O   0,H  25)     39.5492         0.023487   
     94. D(C  11,C   7,C   6,C   8)     50.0479         0.009312   
     95. D(C  11,C   7,C   6,C  10)    169.7233         0.009312   
     96. D(H  15,C   7,O   0,H  25)    158.6431         0.023487   
     97. D(O   0,C   7,C   6,C  10)     45.2857         0.009312   
     98. D(O   1,C   8,C   6,C   9)    176.0526         0.010269   
     99. D(O   1,C   8,C   6,C  10)    -64.4621         0.010269   
    100. D(O   1,C   8,C   6,C   7)     54.8744         0.010269   
    101. D(H  16,C   8,O   1,H  28)    -23.9139         0.021532   
    102. D(C   6,C   8,O   1,H  28)   -144.7580         0.021532   
    103. D(H  17,C   8,O   1,H  28)     94.9269         0.021532   
    104. D(H  16,C   8,C   6,C   7)    -66.0744         0.010269   
    105. D(H  16,C   8,C   6,C  10)    174.5891         0.010269   
    106. D(H  16,C   8,C   6,C   9)     55.1038         0.010269   
    107. D(H  19,C   9,C   6,C  10)    -58.7541         0.010924   
    108. D(H  19,C   9,C   6,C   8)     60.9013         0.010924   
    109. D(H  19,C   9,C   6,C   7)   -178.3658         0.010924   
    110. D(H  18,C   9,C   6,C  10)     60.7531         0.010924   
    111. D(H  18,C   9,C   6,C   8)   -179.5916         0.010924   
    112. D(H  18,C   9,C   6,C   7)    -58.8587         0.010924   
    113. D(H  22,C  10,C   6,C   9)    -65.8032         0.010668   
    114. D(H  22,C  10,C   6,C   8)    174.5817         0.010668   
    115. D(H  22,C  10,C   6,C   7)     54.7524         0.010668   
    116. D(H  21,C  10,C   6,C   9)     54.1553         0.010668   
    117. D(H  21,C  10,C   6,C   8)    -65.4598         0.010668   
    118. D(H  21,C  10,C   6,C   7)    174.7110         0.010668   
    119. D(O   2,C  11,N   5,C  12)     -6.3523         0.034190   
    120. D(N   5,C  11,C   7,O   0)     -2.7738         0.010049   
    121. D(O   2,C  11,C   7,H  15)    -64.9078         0.010049   
    122. D(O   2,C  11,C   7,C   6)     53.9308         0.010049   
    123. D(O   2,C  11,C   7,O   0)    178.7546         0.010049   
    124. D(C   7,C  11,N   5,H  24)      8.8414         0.034190   
    125. D(C   7,C  11,N   5,C  12)    175.1591         0.034190   
    126. D(N   5,C  11,C   7,C   6)   -127.5975         0.010049   
    127. D(O   2,C  11,N   5,H  24)   -172.6700         0.034190   
    128. D(H  27,C  12,N   5,C  11)    167.4058         0.017606   
    129. D(H  26,C  12,N   5,H  24)   -145.7696         0.017606   
    130. D(H  26,C  12,N   5,C  11)     48.0747         0.017606   
    131. D(C  13,C  12,N   5,H  24)     95.3197         0.017606   
    132. D(C  13,C  12,N   5,C  11)    -70.8360         0.017606   
    133. D(H  29,C  13,C  12,H  27)    -61.2714         0.010306   
    134. D(H  29,C  13,C  12,H  26)     58.9168         0.010306   
    135. D(H  29,C  13,C  12,N   5)    177.8125         0.010306   
    136. D(C  14,C  13,C  12,H  27)     58.1631         0.010306   
    137. D(C  14,C  13,C  12,H  26)    178.3513         0.010306   
    138. D(C  14,C  13,C  12,N   5)    -62.7530         0.010306   
    139. D(O   4,C  14,C  13,H  29)   -132.5837         0.012569   
    140. D(O   4,C  14,C  13,C  12)    108.2023         0.012569   
    141. D(O   3,C  14,C  13,H  30)    168.8707         0.012569   
    142. D(O   3,C  14,C  13,H  29)     48.7223         0.012569   
    143. D(O   3,C  14,C  13,C  12)    -70.4917         0.012569   
    144. D(C  13,C  14,O   3,H  31)    179.5575         0.034985   
    145. D(O   4,C  14,O   3,H  31)      0.8112         0.034985   
    -----------------------------------------------------------------

Number of atoms                         .... 32
Number of degrees of freedom            .... 145


         *************************************************************
         *                GEOMETRY OPTIMIZATION CYCLE   1            *
         *************************************************************
---------------------------------
CARTESIAN COORDINATES (ANGSTROEM)
---------------------------------
  O     -1.772917   -1.481674    8.332315
  O     -0.232730    0.181822    6.822972
  O     -2.732576   -2.406588    5.016293
  O     -3.962443    2.576879    5.558385
  O     -1.892760    1.817181    5.272357
  N     -3.515646   -0.902568    6.497409
  C     -0.183601   -2.233094    6.623166
  C     -1.636229   -2.280442    7.179965
  C      0.061084   -0.879547    5.926391
  C      0.040845   -3.369210    5.618890
  C      0.801508   -2.391539    7.791386
  C     -2.663894   -1.877135    6.112661
  C     -4.460334   -0.364688    5.542722
  C     -3.743093    0.488567    4.478144
  C     -3.080684    1.673763    5.123530
  H     -1.873082   -3.315189    7.471279
  H     -0.573714   -0.801517    5.031760
  H      1.113298   -0.819567    5.604694
  H     -0.135832   -4.333502    6.096051
  H      1.069281   -3.345847    5.255914
  H     -0.628810   -3.278157    4.765588
  H      1.821769   -2.454883    7.411419
  H      0.579877   -3.298787    8.353801
  H      0.738395   -1.539291    8.466835
  H     -3.346537   -0.421758    7.368425
  H     -1.251839   -0.668450    8.183250
  H     -4.955748   -1.200550    5.039177
  H     -5.201366    0.235605    6.076033
  H     -0.618723    0.919474    6.318171
  H     -4.482298    0.842349    3.757335
  H     -2.991946   -0.116904    3.969239
  H     -3.490421    3.318441    5.972541

----------------------------
CARTESIAN COORDINATES (A.U.)
----------------------------
  NO LB      ZA    FRAG     MASS         X           Y           Z
   0 O     8.0000    0    15.999   -3.350328   -2.799959   15.745793
   1 O     8.0000    0    15.999   -0.439795    0.343594   12.893549
   2 O     8.0000    0    15.999   -5.163820   -4.547792    9.479420
   3 O     8.0000    0    15.999   -7.487933    4.869596   10.503825
   4 O     8.0000    0    15.999   -3.576798    3.433975    9.963312
   5 N     7.0000    0    14.007   -6.643609   -1.705606   12.278324
   6 C     6.0000    0    12.011   -0.346955   -4.219935   12.515970
   7 C     6.0000    0    12.011   -3.092024   -4.309411   13.568168
   8 C     6.0000    0    12.011    0.115431   -1.662103   11.199256
   9 C     6.0000    0    12.011    0.077187   -6.366885   10.618163
  10 C     6.0000    0    12.011    1.514630   -4.519354   14.723586
  11 C     6.0000    0    12.011   -5.034030   -3.547270   11.551254
  12 C     6.0000    0    12.011   -8.428811   -0.689161   10.474226
  13 C     6.0000    0    12.011   -7.073421    0.923257    8.462466
  14 C     6.0000    0    12.011   -5.821650    3.162954    9.682069
  15 H     1.0000    0     1.008   -3.539612   -6.264799   14.118671
  16 H     1.0000    0     1.008   -1.084162   -1.514648    9.508648
  17 H     1.0000    0     1.008    2.103829   -1.548758   10.591338
  18 H     1.0000    0     1.008   -0.256686   -8.189132   11.519867
  19 H     1.0000    0     1.008    2.020648   -6.322735    9.932237
  20 H     1.0000    0     1.008   -1.188279   -6.194820    9.005656
  21 H     1.0000    0     1.008    3.442644   -4.639056   14.005553
  22 H     1.0000    0     1.008    1.095810   -6.233805   15.786395
  23 H     1.0000    0     1.008    1.395364   -2.908838   15.999999
  24 H     1.0000    0     1.008   -6.324038   -0.797007   13.924306
  25 H     1.0000    0     1.008   -2.365632   -1.263188   15.464102
  26 H     1.0000    0     1.008   -9.365007   -2.268710    9.522665
  27 H     1.0000    0     1.008   -9.829157    0.445229   11.482038
  28 H     1.0000    0     1.008   -1.169217    1.737553   11.939613
  29 H     1.0000    0     1.008   -8.470316    1.591810    7.100335
  30 H     1.0000    0     1.008   -5.653958   -0.220916    7.500775
  31 H     1.0000    0     1.008   -6.595940    6.270944   11.286466

--------------------------------
INTERNAL COORDINATES (ANGSTROEM)
--------------------------------
 O      0   0   0     0.000000000000     0.00000000     0.00000000
 O      1   0   0     2.723511232082     0.00000000     0.00000000
 O      1   2   0     3.573851045319    78.21249837     0.00000000
 O      2   1   3     4.609364912978    90.67734890    69.98983583
 O      4   2   1     2.223182754175    26.42050981   206.07515990
 N      3   1   2     2.251439720249    46.37905841   269.00457886
 C      2   1   3     2.423665289228    56.53444948   302.73249304
 C      1   2   3     1.408766954945    80.68442602    28.79058710
 C      2   1   3     1.420101793439    90.59542691   317.48765092
 C      7   2   1     1.532875791766   142.69970185   148.67468541
 C      7   2   1     1.536320696191    93.04219771   276.37647077
 C      3   1   2     1.219450587492    15.91004959   268.98444484
 C      6   3   1     1.446782096807    92.37063635   174.45749950
 C     13   6   3     1.541364521978   110.96012077   286.25728223
 C      5   4   2     1.205770822658    30.61018636    89.61677135
 H      8   1   2     1.100756254840   107.19592454   160.81938208
 H      9   2   1     1.099736808633   109.94666501   100.06008268
 H      9   2   1     1.101926255001   109.94980329   218.90084829
 H     10   7   2     1.090300924222   110.18525212   184.00009482
 H     10   7   2     1.090860602971   109.88711919    64.49295181
 H     10   7   2     1.088509949169   111.19314929   304.34523767
 H     11   7   2     1.090558975224   109.93385787   264.65383611
 H     11   7   2     1.090196778963   110.34974245   144.69528543
 H     11   7   2     1.089284941820   110.71197736    24.39908177
 H      6   3   1     1.009180437463   145.87102508    11.46626156
 H      1   2   3     0.977280072043    26.57916915   204.13951004
 H     13   6   3     1.094374744826   108.37606181    45.16799972
 H     13   6   3     1.092657446051   108.96600298   164.49903423
 H      2   1   3     0.973624815989   121.72832696    70.05492856
 H     14  13   6     1.091398939689   108.68871977   177.81252517
 H     14  13   6     1.090780125410   109.59677348    57.85094902
 H      4   2   1     0.971721787743    83.48556456   120.61645702

---------------------------
INTERNAL COORDINATES (A.U.)
---------------------------
 O      0   0   0     0.000000000000     0.00000000     0.00000000
 O      1   0   0     5.146690351293     0.00000000     0.00000000
 O      1   2   0     6.753599719082    78.21249837     0.00000000
 O      2   1   3     8.710437336834    90.67734890    69.98983583
 O      4   2   1     4.201206551047    26.42050981   206.07515990
 N      3   1   2     4.254604478302    46.37905841   269.00457886
 C      2   1   3     4.580063636931    56.53444948   302.73249304
 C      1   2   3     2.662183731365    80.68442602    28.79058710
 C      2   1   3     2.683603471890    90.59542691   317.48765092
 C      7   2   1     2.896715443755   142.69970185   148.67468541
 C      7   2   1     2.903225369677    93.04219771   276.37647077
 C      3   1   2     2.304427644208    15.91004959   268.98444484
 C      6   3   1     2.734021938426    92.37063635   174.45749950
 C     13   6   3     2.912756819080   110.96012077   286.25728223
 C      5   4   2     2.278576635096    30.61018636    89.61677135
 H      8   1   2     2.080127861849   107.19592454   160.81938208
 H      9   2   1     2.078201387709   109.94666501   100.06008268
 H      9   2   1     2.082338841730   109.94980329   218.90084829
 H     10   7   2     2.060370150340   110.18525212   184.00009482
 H     10   7   2     2.061427789900   109.88711919    64.49295181
 H     10   7   2     2.056985697979   111.19314929   304.34523767
 H     11   7   2     2.060857796064   109.93385787   264.65383611
 H     11   7   2     2.060173344323   110.34974245   144.69528543
 H     11   7   2     2.058450221844   110.71197736    24.39908177
 H      6   3   1     1.907074646517   145.87102508    11.46626156
 H      1   2   3     1.846791692301    26.57916915   204.13951004
 H     13   6   3     2.068068555602   108.37606181    45.16799972
 H     13   6   3     2.064823331225   108.96600298   164.49903423
 H      2   1   3     1.839884259409   121.72832696    70.05492856
 H     14  13   6     2.062445098865   108.68871977   177.81252517
 H     14  13   6     2.061275709350   109.59677348    57.85094902
 H      4   2   1     1.836288057198    83.48556456   120.61645702

---------------------
BASIS SET INFORMATION
---------------------
There are 4 groups of distinct atoms

 Group   1 Type O   : 11s6p2d contracted to 5s3p2d pattern {62111/411/11}
 Group   2 Type N   : 11s6p1d contracted to 5s3p1d pattern {62111/411/1}
 Group   3 Type C   : 11s6p1d contracted to 5s3p1d pattern {62111/411/1}
 Group   4 Type H   : 5s contracted to 3s pattern {311}

Atom   0O    basis set group =>   1
Atom   1O    basis set group =>   1
Atom   2O    basis set group =>   1
Atom   3O    basis set group =>   1
Atom   4O    basis set group =>   1
Atom   5N    basis set group =>   2
Atom   6C    basis set group =>   3
Atom   7C    basis set group =>   3
Atom   8C    basis set group =>   3
Atom   9C    basis set group =>   3
Atom  10C    basis set group =>   3
Atom  11C    basis set group =>   3
Atom  12C    basis set group =>   3
Atom  13C    basis set group =>   3
Atom  14C    basis set group =>   3
Atom  15H    basis set group =>   4
Atom  16H    basis set group =>   4
Atom  17H    basis set group =>   4
Atom  18H    basis set group =>   4
Atom  19H    basis set group =>   4
Atom  20H    basis set group =>   4
Atom  21H    basis set group =>   4
Atom  22H    basis set group =>   4
Atom  23H    basis set group =>   4
Atom  24H    basis set group =>   4
Atom  25H    basis set group =>   4
Atom  26H    basis set group =>   4
Atom  27H    basis set group =>   4
Atom  28H    basis set group =>   4
Atom  29H    basis set group =>   4
Atom  30H    basis set group =>   4
Atom  31H    basis set group =>   4
---------------------------------
AUXILIARY/J BASIS SET INFORMATION
---------------------------------
There are 4 groups of distinct atoms

 Group   1 Type O   : 8s3p3d contracted to 6s3p3d pattern {311111/111/111}
 Group   2 Type N   : 8s3p3d contracted to 6s3p3d pattern {311111/111/111}
 Group   3 Type C   : 8s3p3d contracted to 6s3p3d pattern {311111/111/111}
 Group   4 Type H   : 5s2p contracted to 3s1p pattern {311/2}

Atom   0O    basis set group =>   1
Atom   1O    basis set group =>   1
Atom   2O    basis set group =>   1
Atom   3O    basis set group =>   1
Atom   4O    basis set group =>   1
Atom   5N    basis set group =>   2
Atom   6C    basis set group =>   3
Atom   7C    basis set group =>   3
Atom   8C    basis set group =>   3
Atom   9C    basis set group =>   3
Atom  10C    basis set group =>   3
Atom  11C    basis set group =>   3
Atom  12C    basis set group =>   3
Atom  13C    basis set group =>   3
Atom  14C    basis set group =>   3
Atom  15H    basis set group =>   4
Atom  16H    basis set group =>   4
Atom  17H    basis set group =>   4
Atom  18H    basis set group =>   4
Atom  19H    basis set group =>   4
Atom  20H    basis set group =>   4
Atom  21H    basis set group =>   4
Atom  22H    basis set group =>   4
Atom  23H    basis set group =>   4
Atom  24H    basis set group =>   4
Atom  25H    basis set group =>   4
Atom  26H    basis set group =>   4
Atom  27H    basis set group =>   4
Atom  28H    basis set group =>   4
Atom  29H    basis set group =>   4
Atom  30H    basis set group =>   4
Atom  31H    basis set group =>   4


           ************************************************************
           *        Program running with 16 parallel MPI-processes    *
           *              working on a common directory               *
           ************************************************************
------------------------------------------------------------------------------
                             ORCA STARTUP CALCULATIONS
                           -- RI-GTO INTEGRALS CHOSEN --
------------------------------------------------------------------------------
------------------------------------------------------------------------------
                   ___                                                        
                  /   \      - P O W E R E D   B Y -                         
                 /     \                                                     
                 |  |  |   _    _      __       _____    __    __             
                 |  |  |  | |  | |    /  \     |  _  \  |  |  /  |          
                  \  \/   | |  | |   /    \    | | | |  |  | /  /          
                 / \  \   | |__| |  /  /\  \   | |_| |  |  |/  /          
                |  |  |   |  __  | /  /__\  \  |    /   |      \           
                |  |  |   | |  | | |   __   |  |    \   |  |\   \          
                \     /   | |  | | |  |  |  |  | |\  \  |  | \   \       
                 \___/    |_|  |_| |__|  |__|  |_| \__\ |__|  \__/        
                                                                              
                      - O R C A' S   B I G   F R I E N D -                    
                                      &                                       
                       - I N T E G R A L  F E E D E R -                       
                                                                              
 v1 FN, 2020, v2 2021, v3 2022-2024                                           
------------------------------------------------------------------------------


----------------------
SHARK INTEGRAL PACKAGE
----------------------

Number of atoms                             ...     32
Number of basis functions                   ...    361
Number of shells                            ...    191
Maximum angular momentum                    ...      2
Integral batch strategy                     ... SHARK/LIBINT Hybrid
RI-J (if used) integral strategy            ... SPLIT-RIJ (Revised 2003 algorithm where possible)
Printlevel                                  ...      1
Contraction scheme used                     ... SEGMENTED contraction
Prescreening option                         ... SCHWARTZ
   Thresh                                   ... 2.500e-11
   Tcut                                     ... 2.500e-12
   Tpresel                                  ... 2.500e-12 
Coulomb Range Separation                    ... NOT USED
Exchange Range Separation                   ... NOT USED
Multipole approximations                    ... NOT USED
Finite Nucleus Model                        ... NOT USED
CABS basis                                  ... NOT available
Auxiliary Coulomb fitting basis             ... AVAILABLE
   # of basis functions in Aux-J            ...    552
   # of shells in Aux-J                     ...    248
   Maximum angular momentum in Aux-J        ...      2
Auxiliary J/K fitting basis                 ... NOT available
Auxiliary Correlation fitting basis         ... NOT available
Auxiliary 'external' fitting basis          ... NOT available

Checking pre-screening integrals            ... done (  0.0 sec) Dimension = 191
Check shell pair data                       ... done (  0.0 sec)
Shell pair information
Shell pair cut-off parameter TPreSel        ...   2.5e-12
Total number of shell pairs                 ...     18336
Shell pairs after pre-screening             ...     15439
Total number of primitive shell pairs       ...     65361
Primitive shell pairs kept                  ...     36545
          la=0 lb=0:   6349 shell pairs
          la=1 lb=0:   4982 shell pairs
          la=1 lb=1:    975 shell pairs
          la=2 lb=0:   2114 shell pairs
          la=2 lb=1:    828 shell pairs
          la=2 lb=2:    191 shell pairs

Calculating one electron integrals          ... done (  0.0 sec)
Calculating RI/J V-Matrix + Cholesky decomp.... done (  0.0 sec)
Calculating Nuclear repulsion               ... done (  0.0 sec) ENN=   1157.740258794527 Eh

Diagonalization of the overlap matrix:
Smallest eigenvalue                        ... 4.966e-05
Time for diagonalization                   ...    0.010 sec
Threshold for overlap eigenvalues          ... 1.000e-07
Number of eigenvalues below threshold      ... 0
Time for construction of square roots      ...    0.005 sec
Total time needed                          ...    0.016 sec

-------------------
DFT GRID GENERATION
-------------------

General Integration Accuracy     IntAcc      ... 4.959
Radial Grid Type                 RadialGrid  ... OptM3 with GC (2021)
Angular Grid (max. ang.)         AngularGrid ... 6 (Lebedev-590)
Angular grid pruning method      GridPruning ... 4 (adaptive)
Weight generation scheme         WeightScheme... mBecke (2022)
Basis function cutoff            BFCut       ... 1.0000e-11
Integration weight cutoff        WCut        ... 1.0000e-14
Partially contracted basis set               ... off
Rotationally invariant grid construction     ... off
Angular grids for H and He will be reduced by one unit
Diffuse basis detected: some atoms will have their outermost
                        angular grid increased by 1.

Total number of grid points                  ...   360066
Total number of batches                      ...     5640
Average number of points per batch           ...       63
Average number of grid points per atom       ...    11252
Initializing property integral containers    ... done (  0.0 sec)

SHARK setup successfully completed in   2.5 seconds

Maximum memory used throughout the entire STARTUP-calculation: 82.1 MB


           ************************************************************
           *        Program running with 16 parallel MPI-processes    *
           *              working on a common directory               *
           ************************************************************
-------------------------------------------------------------------------------
                                 ORCA GUESS
                   Start orbitals & Density for SCF / CASSCF
-------------------------------------------------------------------------------

------------
SCF SETTINGS
------------
Hamiltonian:
 Density Functional     Method          .... DFT(GTOs)
 Exchange Functional    Exchange        .... B973C
 Correlation Functional Correlation     .... B973C
 Gradients option       PostSCFGGA      .... off
 RI-approximation to the Coulomb term is turned on
   Number of AuxJ basis functions       .... 552


General Settings:
 Integral files         IntName         .... m1_00_Vitamin_B5-GFN1_0005-B97-3C-TZ
 Hartree-Fock type      HFTyp           .... RHF
 Total Charge           Charge          ....    0
 Multiplicity           Mult            ....    1
 Number of Electrons    NEL             ....  118
 Basis Dimension        Dim             ....  361
 Nuclear Repulsion      ENuc            ....   1157.7402587945 Eh

Convergence Acceleration:
 AO-DIIS                CNVDIIS         .... on
   Start iteration      DIISMaxIt       ....    12
   Startup error        DIISStart       ....  0.200000
   # of expansion vecs  DIISMaxEq       ....     5
   Bias factor          DIISBfac        ....   1.050
   Max. coefficient     DIISMaxC        ....  10.000
 MO-DIIS                CNVKDIIS        .... off
 Trust-Rad. Augm. Hess. CNVTRAH         .... off
 SOSCF                  CNVSOSCF        .... on
   Start iteration      SOSCFMaxIt      ....   150
   Startup grad/error   SOSCFStart      ....  0.003300
   Hessian update       SOSCFHessUp     .... L-BFGS
 Level Shifting         CNVShift        .... on
   Level shift para.    LevelShift      ....    0.2500
   Turn off err/grad.   ShiftErr        ....    0.0010
 Zerner damping         CNVZerner       .... off
 Static damping         CNVDamp         .... on
   Fraction old density DampFac         ....    0.7000
   Max. Damping (<1)    DampMax         ....    0.9800
   Min. Damping (>=0)   DampMin         ....    0.0000
   Turn off err/grad.   DampErr         ....    0.1000

SCF Procedure:
 Maximum # iterations   MaxIter         ....   800
 SCF integral mode      SCFMode         .... Direct
   Integral package                     .... SHARK and LIBINT hybrid scheme
 Reset frequency        DirectResetFreq ....    20
 Integral Threshold     Thresh          ....  2.500e-11 Eh
 Primitive CutOff       TCut            ....  2.500e-12 Eh

Convergence Tolerance:
 Convergence Check Mode ConvCheckMode   .... Total+1el-Energy
 Convergence forced     ConvForced      .... 0
 Energy Change          TolE            ....  1.000e-08 Eh
 1-El. energy change                    ....  1.000e-05 Eh
 Orbital Gradient       TolG            ....  1.000e-05
 Orbital Rotation angle TolX            ....  1.000e-05
 DIIS Error             TolErr          ....  5.000e-07

--------------------------------
INITIAL GUESS: MINIMAL BASIS EHT
--------------------------------
The minimal basis has 92 functions
EHT matrix was diagonalized
Basis set overlap was calculated now projecting the orbitals
Using GuessMode=FMatrix for the initial guess
C*T matrix was formed
Effective Fockian was calculated
Effective Fockian was diagonalized
Initial density was built
                      ------------------
                      INITIAL GUESS DONE
                      ------------------
             **** ENERGY FILE WAS UPDATED (m1_00_Vitamin_B5-GFN1_0005-B97-3C-TZ.en.tmp) ****
Finished Guess after   0.2 sec
Maximum memory used throughout the entire GUESS-calculation: 26.2 MB


           ************************************************************
           *        Program running with 16 parallel MPI-processes    *
           *              working on a common directory               *
           ************************************************************

-------------------------------------------------------------------------------------------
                                      ORCA LEAN-SCF
                              memory conserving SCF solver
-------------------------------------------------------------------------------------------

----------------------------------------D-I-I-S--------------------------------------------
Iteration    Energy (Eh)           Delta-E    RMSDP     MaxDP     DIISErr   Damp  Time(sec)
-------------------------------------------------------------------------------------------
               ***  Starting incremental Fock matrix formation  ***
    1    -780.9531895376001103     0.00e+00  5.12e-03  1.56e-01  4.40e-01  0.700   0.5
Warning: op=0 Small HOMO/LUMO gap (   0.067) - skipping pre-diagonalization
         Will do a full diagonalization
    2    -781.9486573678641435    -9.95e-01  4.01e-03  2.71e-01  3.12e-01  0.700   0.5
    3    -782.4439780874665757    -4.95e-01  2.37e-03  8.97e-02  2.23e-01  0.700   0.5
                               ***Turning on AO-DIIS***
    4    -782.7902966195485988    -3.46e-01  1.63e-03  4.17e-02  1.56e-01  0.700   0.5
    5    -783.0338759200130880    -2.44e-01  1.18e-03  2.96e-02  1.07e-01  0.700   0.5
    6    -783.2056021784521818    -1.72e-01  8.40e-04  2.44e-02  7.45e-02  0.700   0.5
    7    -783.3268048829256713    -1.21e-01  2.07e-03  1.10e-01  5.22e-02  0.000   0.5
    8    -783.6073321980350102    -2.81e-01  3.89e-04  3.48e-02  2.43e-02  0.000   0.5
    9    -783.6093603475205782    -2.03e-03  1.34e-04  5.58e-03  1.03e-02  0.000   0.5
   10    -783.6094841427266147    -1.24e-04  4.67e-05  1.96e-03  5.77e-03  0.000   0.5
                              *** Initializing SOSCF ***
---------------------------------------S-O-S-C-F--------------------------------------
Iteration    Energy (Eh)           Delta-E    RMSDP     MaxDP     MaxGrad    Time(sec)
--------------------------------------------------------------------------------------
   11    -783.6096023315965340    -1.18e-04  1.66e-05  6.59e-04  8.55e-04     0.5
               *** Restarting incremental Fock matrix formation ***
   12    -783.6096073033577341    -4.97e-06  1.88e-05  1.95e-03  7.43e-05     0.5
   13    -783.6096064298583315     8.73e-07  8.09e-06  5.27e-04  1.95e-04     0.4
   14    -783.6096076309170257    -1.20e-06  3.94e-06  2.05e-04  5.37e-05     0.4
   15    -783.6096074874110400     1.44e-07  2.57e-06  1.85e-04  1.26e-04     0.4
   16    -783.6096076428880224    -1.55e-07  1.75e-06  1.21e-04  4.62e-06     0.4
   17    -783.6096076416349661     1.25e-09  9.78e-07  4.11e-05  5.32e-06     0.4
                 **** Energy Check signals convergence ****

               *****************************************************
               *                     SUCCESS                       *
               *           SCF CONVERGED AFTER  17 CYCLES          *
               *****************************************************

             **** ENERGY FILE WAS UPDATED (m1_00_Vitamin_B5-GFN1_0005-B97-3C-TZ.en.tmp) ****

----------------
TOTAL SCF ENERGY
----------------

Total Energy       :       -783.60960764163497 Eh          -21323.10147 eV

Components:
Nuclear Repulsion  :       1157.74025879452711 Eh           31503.71406 eV
Electronic Energy  :      -1941.34986643616207 Eh          -52826.81553 eV
One Electron Energy:      -3371.14235200937128 Eh          -91733.44704 eV
Two Electron Energy:       1429.79248557320921 Eh           38906.63151 eV

Virial components:
Potential Energy   :      -1564.36968841186035 Eh          -42568.66337 eV
Kinetic Energy     :        780.76008077022550 Eh           21245.56190 eV
Virial Ratio       :          2.00364968309932

DFT components:
N(Alpha)           :       58.999999211704 electrons
N(Beta)            :       58.999999211704 electrons
N(Total)           :      117.999998423408 electrons
E(XC)              :     -104.565203778476 Eh       

---------------
SCF CONVERGENCE
---------------

  Last Energy change         ...   -1.2531e-09  Tolerance :   1.0000e-08
  Last MAX-Density change    ...    4.1126e-05  Tolerance :   1.0000e-07
  Last RMS-Density change    ...    9.7835e-07  Tolerance :   5.0000e-09
  Last DIIS Error            ...    8.5519e-04  Tolerance :   5.0000e-07
  Last Orbital Gradient      ...    5.3166e-06  Tolerance :   1.0000e-05
  Last Orbital Rotation      ...    6.3247e-06  Tolerance :   1.0000e-05


----------------
ORBITAL ENERGIES
----------------

  NO   OCC          E(Eh)            E(eV) 
   0   2.0000     -18.820548      -512.1331 
   1   2.0000     -18.760492      -510.4989 
   2   2.0000     -18.744812      -510.0723 
   3   2.0000     -18.735091      -509.8077 
   4   2.0000     -18.706600      -509.0325 
   5   2.0000     -14.014149      -381.3444 
   6   2.0000     -10.044082      -273.3134 
   7   2.0000      -9.977267      -271.4952 
   8   2.0000      -9.947090      -270.6741 
   9   2.0000      -9.944095      -270.5926 
  10   2.0000      -9.932533      -270.2780 
  11   2.0000      -9.920538      -269.9516 
  12   2.0000      -9.903880      -269.4983 
  13   2.0000      -9.871290      -268.6115 
  14   2.0000      -9.868367      -268.5319 
  15   2.0000      -1.057724       -28.7821 
  16   2.0000      -0.968885       -26.3647 
  17   2.0000      -0.964697       -26.2507 
  18   2.0000      -0.946809       -25.7640 
  19   2.0000      -0.932326       -25.3699 
  20   2.0000      -0.856035       -23.2939 
  21   2.0000      -0.741752       -20.1841 
  22   2.0000      -0.734025       -19.9738 
  23   2.0000      -0.653087       -17.7714 
  24   2.0000      -0.620036       -16.8720 
  25   2.0000      -0.613615       -16.6973 
  26   2.0000      -0.609890       -16.5960 
  27   2.0000      -0.580541       -15.7973 
  28   2.0000      -0.534848       -14.5540 
  29   2.0000      -0.506684       -13.7876 
  30   2.0000      -0.491969       -13.3872 
  31   2.0000      -0.481945       -13.1144 
  32   2.0000      -0.465752       -12.6738 
  33   2.0000      -0.451394       -12.2830 
  34   2.0000      -0.442808       -12.0494 
  35   2.0000      -0.438269       -11.9259 
  36   2.0000      -0.419842       -11.4245 
  37   2.0000      -0.411489       -11.1972 
  38   2.0000      -0.398129       -10.8336 
  39   2.0000      -0.385865       -10.4999 
  40   2.0000      -0.378363       -10.2958 
  41   2.0000      -0.371083       -10.0977 
  42   2.0000      -0.368291       -10.0217 
  43   2.0000      -0.357775        -9.7356 
  44   2.0000      -0.348526        -9.4839 
  45   2.0000      -0.345165        -9.3924 
  46   2.0000      -0.336173        -9.1477 
  47   2.0000      -0.331453        -9.0193 
  48   2.0000      -0.325766        -8.8645 
  49   2.0000      -0.318693        -8.6721 
  50   2.0000      -0.311756        -8.4833 
  51   2.0000      -0.292363        -7.9556 
  52   2.0000      -0.285092        -7.7578 
  53   2.0000      -0.269505        -7.3336 
  54   2.0000      -0.261495        -7.1156 
  55   2.0000      -0.249742        -6.7958 
  56   2.0000      -0.230035        -6.2596 
  57   2.0000      -0.222908        -6.0656 
  58   2.0000      -0.195927        -5.3315 
  59   0.0000      -0.057971        -1.5775 
  60   0.0000      -0.014898        -0.4054 
  61   0.0000      -0.004301        -0.1170 
  62   0.0000       0.030252         0.8232 
  63   0.0000       0.037830         1.0294 
  64   0.0000       0.047482         1.2921 
  65   0.0000       0.053572         1.4578 
  66   0.0000       0.071416         1.9433 
  67   0.0000       0.073335         1.9956 
  68   0.0000       0.077497         2.1088 
  69   0.0000       0.083100         2.2613 
*Only the first 10 virtual orbitals were printed.

                    ********************************
                    * MULLIKEN POPULATION ANALYSIS *
                    ********************************

-----------------------
MULLIKEN ATOMIC CHARGES
-----------------------
   0 O :   -0.622288
   1 O :   -0.602161
   2 O :   -0.435922
   3 O :   -0.500956
   4 O :   -0.456009
   5 N :   -0.297647
   6 C :    0.109760
   7 C :    0.014533
   8 C :   -0.242048
   9 C :   -0.486894
  10 C :   -0.485783
  11 C :    0.157703
  12 C :   -0.287776
  13 C :   -0.232861
  14 C :    0.369566
  15 H :    0.190195
  16 H :    0.168977
  17 H :    0.156492
  18 H :    0.159516
  19 H :    0.155792
  20 H :    0.197636
  21 H :    0.167068
  22 H :    0.165853
  23 H :    0.180150
  24 H :    0.352526
  25 H :    0.425558
  26 H :    0.195027
  27 H :    0.203390
  28 H :    0.436544
  29 H :    0.190822
  30 H :    0.210565
  31 H :    0.442673
Sum of atomic charges:    0.0000000

--------------------------------
MULLIKEN REDUCED ORBITAL CHARGES
--------------------------------
  0 O s       :     3.809771  s :     3.809771
      pz      :     1.574003  p :     4.776989
      px      :     1.787508
      py      :     1.415478
      dz2     :     0.008993  d :     0.035527
      dxz     :     0.005007
      dyz     :     0.005907
      dx2y2   :     0.012097
      dxy     :     0.003523

  1 O s       :     3.791535  s :     3.791535
      pz      :     1.592148  p :     4.771225
      px      :     1.813567
      py      :     1.365510
      dz2     :     0.003227  d :     0.039402
      dxz     :     0.005268
      dyz     :     0.015517
      dx2y2   :     0.008230
      dxy     :     0.007160

  2 O s       :     3.844997  s :     3.844997
      pz      :     1.346839  p :     4.553892
      px      :     1.644203
      py      :     1.562850
      dz2     :     0.012110  d :     0.037033
      dxz     :     0.003437
      dyz     :     0.009976
      dx2y2   :     0.007043
      dxy     :     0.004467

  3 O s       :     3.771752  s :     3.771752
      pz      :     1.662806  p :     4.684791
      px      :     1.637144
      py      :     1.384841
      dz2     :     0.006208  d :     0.044413
      dxz     :     0.009684
      dyz     :     0.005360
      dx2y2   :     0.008125
      dxy     :     0.015036

  4 O s       :     3.837498  s :     3.837498
      pz      :     1.524814  p :     4.579603
      px      :     1.339611
      py      :     1.715178
      dz2     :     0.006352  d :     0.038908
      dxz     :     0.004222
      dyz     :     0.005261
      dx2y2   :     0.015389
      dxy     :     0.007683

  5 N s       :     3.324921  s :     3.324921
      pz      :     1.251606  p :     3.932110
      px      :     1.312413
      py      :     1.368091
      dz2     :     0.008222  d :     0.040616
      dxz     :     0.007631
      dyz     :     0.010644
      dx2y2   :     0.005714
      dxy     :     0.008405

  6 C s       :     2.951336  s :     2.951336
      pz      :     0.932653  p :     2.885357
      px      :     0.982635
      py      :     0.970069
      dz2     :     0.007880  d :     0.053547
      dxz     :     0.012269
      dyz     :     0.013057
      dx2y2   :     0.014152
      dxy     :     0.006189

  7 C s       :     3.087544  s :     3.087544
      pz      :     0.784140  p :     2.827750
      px      :     1.057086
      py      :     0.986524
      dz2     :     0.015252  d :     0.070173
      dxz     :     0.019068
      dyz     :     0.013678
      dx2y2   :     0.014396
      dxy     :     0.007778

  8 C s       :     3.258530  s :     3.258530
      pz      :     0.973442  p :     2.919526
      px      :     1.136559
      py      :     0.809525
      dz2     :     0.009587  d :     0.063992
      dxz     :     0.014424
      dyz     :     0.014715
      dx2y2   :     0.017402
      dxy     :     0.007864

  9 C s       :     3.226055  s :     3.226055
      pz      :     1.070467  p :     3.223521
      px      :     1.124633
      py      :     1.028421
      dz2     :     0.005128  d :     0.037319
      dxz     :     0.009759
      dyz     :     0.008875
      dx2y2   :     0.011710
      dxy     :     0.001846

 10 C s       :     3.232596  s :     3.232596
      pz      :     1.026583  p :     3.215798
      px      :     1.045655
      py      :     1.143560
      dz2     :     0.003781  d :     0.037390
      dxz     :     0.007958
      dyz     :     0.012590
      dx2y2   :     0.011459
      dxy     :     0.001602

 11 C s       :     3.144903  s :     3.144903
      pz      :     0.800996  p :     2.587027
      px      :     0.943238
      py      :     0.842792
      dz2     :     0.025333  d :     0.110367
      dxz     :     0.031983
      dyz     :     0.022028
      dx2y2   :     0.017157
      dxy     :     0.013866

 12 C s       :     3.228061  s :     3.228061
      pz      :     0.940277  p :     3.003901
      px      :     0.970452
      py      :     1.093172
      dz2     :     0.006258  d :     0.055814
      dxz     :     0.015489
      dyz     :     0.015136
      dx2y2   :     0.006217
      dxy     :     0.012714

 13 C s       :     3.074959  s :     3.074959
      pz      :     0.991917  p :     3.116236
      px      :     1.106262
      py      :     1.018057
      dz2     :     0.003880  d :     0.041665
      dxz     :     0.011866
      dyz     :     0.009936
      dx2y2   :     0.004803
      dxy     :     0.011181

 14 C s       :     3.141563  s :     3.141563
      pz      :     0.754481  p :     2.367697
      px      :     0.768655
      py      :     0.844561
      dz2     :     0.009275  d :     0.121175
      dxz     :     0.030703
      dyz     :     0.008541
      dx2y2   :     0.026633
      dxy     :     0.046023

 15 H s       :     0.809805  s :     0.809805

 16 H s       :     0.831023  s :     0.831023

 17 H s       :     0.843508  s :     0.843508

 18 H s       :     0.840484  s :     0.840484

 19 H s       :     0.844208  s :     0.844208

 20 H s       :     0.802364  s :     0.802364

 21 H s       :     0.832932  s :     0.832932

 22 H s       :     0.834147  s :     0.834147

 23 H s       :     0.819850  s :     0.819850

 24 H s       :     0.647474  s :     0.647474

 25 H s       :     0.574442  s :     0.574442

 26 H s       :     0.804973  s :     0.804973

 27 H s       :     0.796610  s :     0.796610

 28 H s       :     0.563456  s :     0.563456

 29 H s       :     0.809178  s :     0.809178

 30 H s       :     0.789435  s :     0.789435

 31 H s       :     0.557327  s :     0.557327



                     *******************************
                     * LOEWDIN POPULATION ANALYSIS *
                     *******************************

----------------------
LOEWDIN ATOMIC CHARGES
----------------------
   0 O :   -0.778920
   1 O :   -0.774695
   2 O :   -0.585886
   3 O :   -0.500071
   4 O :   -0.443732
   5 N :   -0.195101
   6 C :   -0.092302
   7 C :    0.117552
   8 C :    0.040110
   9 C :   -0.398345
  10 C :   -0.378708
  11 C :    0.265049
  12 C :   -0.151573
  13 C :   -0.222759
  14 C :    0.361844
  15 H :    0.202902
  16 H :    0.185001
  17 H :    0.169060
  18 H :    0.159220
  19 H :    0.153084
  20 H :    0.189155
  21 H :    0.155876
  22 H :    0.161168
  23 H :    0.176299
  24 H :    0.313627
  25 H :    0.373747
  26 H :    0.183365
  27 H :    0.167671
  28 H :    0.374874
  29 H :    0.188686
  30 H :    0.202371
  31 H :    0.381434

-------------------------------
LOEWDIN REDUCED ORBITAL CHARGES
-------------------------------
  0 O s       :     3.537439  s :     3.537439
      pz      :     1.606939  p :     4.840394
      px      :     1.761555
      py      :     1.471900
      dz2     :     0.094452  d :     0.401088
      dxz     :     0.082981
      dyz     :     0.088611
      dx2y2   :     0.071514
      dxy     :     0.063529

  1 O s       :     3.533620  s :     3.533620
      pz      :     1.628801  p :     4.850112
      px      :     1.807620
      py      :     1.413690
      dz2     :     0.068756  d :     0.390963
      dxz     :     0.069704
      dyz     :     0.112044
      dx2y2   :     0.070205
      dxy     :     0.070255

  2 O s       :     3.545481  s :     3.545481
      pz      :     1.502444  p :     4.720898
      px      :     1.637436
      py      :     1.581018
      dz2     :     0.090062  d :     0.319506
      dxz     :     0.064872
      dyz     :     0.073518
      dx2y2   :     0.044603
      dxy     :     0.046452

  3 O s       :     3.513812  s :     3.513812
      pz      :     1.652890  p :     4.711179
      px      :     1.643248
      py      :     1.415041
      dz2     :     0.033556  d :     0.275079
      dxz     :     0.042951
      dyz     :     0.057703
      dx2y2   :     0.070716
      dxy     :     0.070153

  4 O s       :     3.517229  s :     3.517229
      pz      :     1.496303  p :     4.642754
      px      :     1.478441
      py      :     1.668010
      dz2     :     0.031283  d :     0.283749
      dxz     :     0.070273
      dyz     :     0.027943
      dx2y2   :     0.069088
      dxy     :     0.085162

  5 N s       :     3.111412  s :     3.111412
      pz      :     1.282292  p :     4.006240
      px      :     1.366965
      py      :     1.356983
      dz2     :     0.015399  d :     0.077450
      dxz     :     0.014810
      dyz     :     0.018986
      dx2y2   :     0.010774
      dxy     :     0.017480

  6 C s       :     2.853913  s :     2.853913
      pz      :     1.061704  p :     3.133002
      px      :     1.025029
      py      :     1.046269
      dz2     :     0.014513  d :     0.105387
      dxz     :     0.025057
      dyz     :     0.026544
      dx2y2   :     0.027988
      dxy     :     0.011285

  7 C s       :     2.823802  s :     2.823802
      pz      :     0.905909  p :     2.918699
      px      :     1.017846
      py      :     0.994944
      dz2     :     0.031350  d :     0.139948
      dxz     :     0.038634
      dyz     :     0.029608
      dx2y2   :     0.027688
      dxy     :     0.012668

  8 C s       :     2.866625  s :     2.866625
      pz      :     0.982091  p :     2.967091
      px      :     1.069582
      py      :     0.915418
      dz2     :     0.018665  d :     0.126174
      dxz     :     0.025426
      dyz     :     0.033476
      dx2y2   :     0.033883
      dxy     :     0.014725

  9 C s       :     2.978104  s :     2.978104
      pz      :     1.127290  p :     3.358981
      px      :     1.140494
      py      :     1.091198
      dz2     :     0.008638  d :     0.061260
      dxz     :     0.014883
      dyz     :     0.015689
      dx2y2   :     0.018866
      dxy     :     0.003184

 10 C s       :     2.977298  s :     2.977298
      pz      :     1.102033  p :     3.340015
      px      :     1.098373
      py      :     1.139609
      dz2     :     0.006814  d :     0.061395
      dxz     :     0.014468
      dyz     :     0.019793
      dx2y2   :     0.017845
      dxy     :     0.002475

 11 C s       :     2.771390  s :     2.771390
      pz      :     0.972995  p :     2.722911
      px      :     0.886557
      py      :     0.863359
      dz2     :     0.056968  d :     0.240650
      dxz     :     0.066882
      dyz     :     0.051926
      dx2y2   :     0.032988
      dxy     :     0.031887

 12 C s       :     2.911113  s :     2.911113
      pz      :     1.026363  p :     3.136280
      px      :     1.031792
      py      :     1.078125
      dz2     :     0.011939  d :     0.104180
      dxz     :     0.030468
      dyz     :     0.028781
      dx2y2   :     0.010929
      dxy     :     0.022063

 13 C s       :     2.927209  s :     2.927209
      pz      :     1.078648  p :     3.223219
      px      :     1.103791
      py      :     1.040780
      dz2     :     0.006655  d :     0.072331
      dxz     :     0.020124
      dyz     :     0.017902
      dx2y2   :     0.007986
      dxy     :     0.019664

 14 C s       :     2.750581  s :     2.750581
      pz      :     0.760151  p :     2.618739
      px      :     0.972193
      py      :     0.886394
      dz2     :     0.022759  d :     0.268836
      dxz     :     0.061943
      dyz     :     0.017197
      dx2y2   :     0.063404
      dxy     :     0.103534

 15 H s       :     0.797098  s :     0.797098

 16 H s       :     0.814999  s :     0.814999

 17 H s       :     0.830940  s :     0.830940

 18 H s       :     0.840780  s :     0.840780

 19 H s       :     0.846916  s :     0.846916

 20 H s       :     0.810845  s :     0.810845

 21 H s       :     0.844124  s :     0.844124

 22 H s       :     0.838832  s :     0.838832

 23 H s       :     0.823701  s :     0.823701

 24 H s       :     0.686373  s :     0.686373

 25 H s       :     0.626253  s :     0.626253

 26 H s       :     0.816635  s :     0.816635

 27 H s       :     0.832329  s :     0.832329

 28 H s       :     0.625126  s :     0.625126

 29 H s       :     0.811314  s :     0.811314

 30 H s       :     0.797629  s :     0.797629

 31 H s       :     0.618566  s :     0.618566



                      *****************************
                      * MAYER POPULATION ANALYSIS *
                      *****************************

  NA   - Mulliken gross atomic population
  ZA   - Total nuclear charge
  QA   - Mulliken gross atomic charge
  VA   - Mayer's total valence
  BVA  - Mayer's bonded valence
  FA   - Mayer's free valence

  ATOM       NA         ZA         QA         VA         BVA        FA
  0 O      8.6223     8.0000    -0.6223     1.7920     1.7920    -0.0000
  1 O      8.6022     8.0000    -0.6022     1.7625     1.7625    -0.0000
  2 O      8.4359     8.0000    -0.4359     2.0853     2.0853    -0.0000
  3 O      8.5010     8.0000    -0.5010     1.9481     1.9481     0.0000
  4 O      8.4560     8.0000    -0.4560     2.0369     2.0369     0.0000
  5 N      7.2976     7.0000    -0.2976     2.9616     2.9616    -0.0000
  6 C      5.8902     6.0000     0.1098     3.7536     3.7536    -0.0000
  7 C      5.9855     6.0000     0.0145     3.4217     3.4217     0.0000
  8 C      6.2420     6.0000    -0.2420     3.7487     3.7487    -0.0000
  9 C      6.4869     6.0000    -0.4869     3.6882     3.6882     0.0000
 10 C      6.4858     6.0000    -0.4858     3.6798     3.6798    -0.0000
 11 C      5.8423     6.0000     0.1577     4.1261     4.1261     0.0000
 12 C      6.2878     6.0000    -0.2878     3.8340     3.8340     0.0000
 13 C      6.2329     6.0000    -0.2329     3.5627     3.5627     0.0000
 14 C      5.6304     6.0000     0.3696     3.9827     3.9827     0.0000
 15 H      0.8098     1.0000     0.1902     0.9371     0.9371     0.0000
 16 H      0.8310     1.0000     0.1690     0.9593     0.9593    -0.0000
 17 H      0.8435     1.0000     0.1565     0.9415     0.9415    -0.0000
 18 H      0.8405     1.0000     0.1595     0.9591     0.9591    -0.0000
 19 H      0.8442     1.0000     0.1558     0.9543     0.9543     0.0000
 20 H      0.8024     1.0000     0.1976     0.9773     0.9773    -0.0000
 21 H      0.8329     1.0000     0.1671     0.9505     0.9505    -0.0000
 22 H      0.8341     1.0000     0.1659     0.9565     0.9565    -0.0000
 23 H      0.8198     1.0000     0.1802     0.9685     0.9685    -0.0000
 24 H      0.6475     1.0000     0.3525     0.8671     0.8671    -0.0000
 25 H      0.5744     1.0000     0.4256     0.8369     0.8369    -0.0000
 26 H      0.8050     1.0000     0.1950     0.9617     0.9617     0.0000
 27 H      0.7966     1.0000     0.2034     0.9303     0.9303     0.0000
 28 H      0.5635     1.0000     0.4365     0.8162     0.8162     0.0000
 29 H      0.8092     1.0000     0.1908     0.9472     0.9472     0.0000
 30 H      0.7894     1.0000     0.2106     0.9672     0.9672     0.0000
 31 H      0.5573     1.0000     0.4427     0.7907     0.7907     0.0000

  Mayer bond orders larger than 0.100000
B(  0-O ,  7-C ) :   1.0524 B(  0-O , 25-H ) :   0.7089 B(  1-O ,  8-C ) :   0.9752 
B(  1-O , 25-H ) :   0.1114 B(  1-O , 28-H ) :   0.7092 B(  2-O , 11-C ) :   1.9034 
B(  3-O , 14-C ) :   1.1147 B(  3-O , 31-H ) :   0.7365 B(  4-O , 14-C ) :   1.8511 
B(  5-N , 11-C ) :   1.2972 B(  5-N , 12-C ) :   0.9054 B(  5-N , 24-H ) :   0.7837 
B(  6-C ,  7-C ) :   0.8450 B(  6-C ,  8-C ) :   0.9914 B(  6-C ,  9-C ) :   0.9660 
B(  6-C , 10-C ) :   0.9637 B(  7-C , 11-C ) :   0.8018 B(  7-C , 15-H ) :   0.9209 
B(  8-C , 16-H ) :   0.9277 B(  8-C , 17-H ) :   0.9245 B(  9-C , 18-H ) :   0.9483 
B(  9-C , 19-H ) :   0.9449 B(  9-C , 20-H ) :   0.9499 B( 10-C , 21-H ) :   0.9500 
B( 10-C , 22-H ) :   0.9497 B( 10-C , 23-H ) :   0.9615 B( 12-C , 13-C ) :   0.8803 
B( 12-C , 26-H ) :   0.9378 B( 12-C , 27-H ) :   0.9334 B( 13-C , 14-C ) :   0.9335 
B( 13-C , 29-H ) :   0.9138 B( 13-C , 30-H ) :   0.9447 


------------------
HIRSHFELD ANALYSIS
------------------

Total integrated alpha density =     58.999999212
Total integrated beta density  =     58.999999212

  ATOM     CHARGE      SPIN    
   0 O   -0.238165    0.000000
   1 O   -0.218588    0.000000
   2 O   -0.290841    0.000000
   3 O   -0.164571    0.000000
   4 O   -0.253226    0.000000
   5 N   -0.111709    0.000000
   6 C    0.015693    0.000000
   7 C    0.059695    0.000000
   8 C    0.030522    0.000000
   9 C   -0.083523    0.000000
  10 C   -0.083367    0.000000
  11 C    0.162633    0.000000
  12 C    0.021087    0.000000
  13 C   -0.043003    0.000000
  14 C    0.222643    0.000000
  15 H    0.042013    0.000000
  16 H    0.023534    0.000000
  17 H    0.023107    0.000000
  18 H    0.028138    0.000000
  19 H    0.023493    0.000000
  20 H    0.024209    0.000000
  21 H    0.026335    0.000000
  22 H    0.027752    0.000000
  23 H    0.024339    0.000000
  24 H    0.115291    0.000000
  25 H    0.125508    0.000000
  26 H    0.044841    0.000000
  27 H    0.039136    0.000000
  28 H    0.124525    0.000000
  29 H    0.048087    0.000000
  30 H    0.046291    0.000000
  31 H    0.188120    0.000000

  TOTAL   0.000002    0.000000

-------
TIMINGS
-------

Total SCF time: 0 days 0 hours 0 min 8 sec 

Total time                  ....       8.739 sec
Sum of individual times     ....       8.654 sec  ( 99.0%)

SCF preparation             ....       0.173 sec  (  2.0%)
Fock matrix formation       ....       7.097 sec  ( 81.2%)
  Startup                   ....       0.017 sec  (  0.2% of F)
  Split-RI-J                ....       1.201 sec  ( 16.9% of F)
  XC integration            ....       5.591 sec  ( 78.8% of F)
    XC Preparation          ....       0.000 sec  (  0.0% of XC)
    Basis function eval.    ....       1.335 sec  ( 23.9% of XC)
    Density eval.           ....       1.382 sec  ( 24.7% of XC)
    XC-Functional eval.     ....       0.133 sec  (  2.4% of XC)
    XC-Potential eval.      ....       1.216 sec  ( 21.8% of XC)
Diagonalization             ....       0.000 sec  (  0.0%)
Density matrix formation    ....       0.062 sec  (  0.7%)
Total Energy calculation    ....       0.031 sec  (  0.4%)
Population analysis         ....       0.678 sec  (  7.8%)
Orbital Transformation      ....       0.061 sec  (  0.7%)
Orbital Orthonormalization  ....       0.000 sec  (  0.0%)
DIIS solution               ....       0.415 sec  (  4.7%)
SOSCF solution              ....       0.138 sec  (  1.6%)
Finished LeanSCF after   8.8 sec

Maximum memory used throughout the entire LEANSCF-calculation: 66.0 MB


           ************************************************************
           *        Program running with 16 parallel MPI-processes    *
           *              working on a common directory               *
           ************************************************************

------------------------------------------------------------------------------
                         ORCA PROPERTY INTEGRAL CALCULATIONS
------------------------------------------------------------------------------

GBWName                                   ... m1_00_Vitamin_B5-GFN1_0005-B97-3C-TZ.gbw
Number of atoms                           ...     32
Number of basis functions                 ...    361
Max core memory                           ...   6000 MB

Dipole integrals                          ... YES
Quadrupole integrals                      ...  NO
Linear momentum integrals                 ...  NO
Angular momentum integrals                ...  NO
Higher moments length integrals           ...  NO
Higher moments velocity integrals         ...  NO
Kinetic energy integrals                  ...  NO
GIAO right hand sides                     ...  NO
GIAO dipole derivative integrals          ...  NO
SOC integrals                             ...  NO
EPR diamagnetic integrals (GIAO)          ...  NO
EPR gauge integrals                       ...  NO
Field gradient integrals                  ...  NO (   0 nuclei)
Spin-dipole/Fermi contact integrals       ...  NO (   0 nuclei)
Contact density integrals                 ...  NO (   0 nuclei)
Nucleus-orbit integrals                   ...  NO (   0 nuclei)
Geometric perturbations                   ...  NO (  32 nuclei)

Choice of electric origin   ... Center of mass
Position of electric origin ... ( -3.6347, -1.3533, 11.6050) 
Choice of magnetic origin   ... GIAO
Position of magnetic origin ... (  0.0000,  0.0000,  0.0000) 

Calculating integrals                     ... Electric Dipole (Length)     done (  0.0 sec)

Property integrals calculated in   0.0 sec

Maximum memory used throughout the entire PROPINT-calculation: 25.5 MB


-------------------------------------------------------------------------------
                          DFT DISPERSION CORRECTION                            
                                                                               
                              DFTD3 V3.1  Rev 1                                
                          USING Becke-Johnson damping                          
-------------------------------------------------------------------------------
The B97-3c composite method is recognized
Using three-body term ABC
Active option DFTDOPT                   ...         4   

[...]
 25:    439.42   0.004964   25.09  0.003525  (-0.051422 -0.029503 -0.003241)
 26:    462.82   0.000810    4.09  0.000546  ( 0.021001  0.010179  0.001191)
 27:    513.74   0.001527    7.72  0.000927  ( 0.024219  0.018239  0.002873)
 28:    541.69   0.002767   13.98  0.001594  (-0.036621 -0.015819  0.001649)
 29:    558.69   0.009927   50.17  0.005545  ( 0.046743  0.050477 -0.028499)
 30:    566.37   0.007966   40.26  0.004389  ( 0.027672 -0.060174  0.001518)
 31:    581.22   0.009196   46.47  0.004937  ( 0.050118  0.038351 -0.030897)
 32:    634.67   0.014592   73.74  0.007175  ( 0.054611  0.022603 -0.060674)
 33:    653.25   0.005373   27.16  0.002567  (-0.000316 -0.016287  0.047975)
 34:    729.03   0.001814    9.17  0.000776  (-0.001643 -0.001304 -0.027783)
 35:    752.73   0.003140   15.87  0.001302  (-0.011479 -0.012431  0.031865)
 36:    795.34   0.005358   27.08  0.002102  ( 0.036751  0.011310  0.024973)
 37:    819.34   0.012480   63.07  0.004753  (-0.044833  0.033713 -0.040084)
 38:    824.65   0.004305   21.75  0.001629  (-0.035893  0.017175 -0.006759)
 39:    870.54   0.000099    0.50  0.000036  (-0.000384  0.003557  0.004782)
 40:    893.89   0.000249    1.26  0.000087  ( 0.003629 -0.004933 -0.007041)
 41:    923.30   0.000779    3.93  0.000263  ( 0.013281 -0.008122  0.004562)
 42:    929.18   0.001361    6.88  0.000457  (-0.021225 -0.001992 -0.001655)
 43:    960.76   0.000349    1.76  0.000113  ( 0.002602  0.003100  0.009842)
 44:    990.87   0.001302    6.58  0.000410  ( 0.001448  0.020019 -0.002672)
 45:    996.42   0.000081    0.41  0.000025  ( 0.000237  0.005004 -0.000528)
 46:   1019.85   0.004675   23.62  0.001430  ( 0.018037 -0.032452  0.007203)
 47:   1036.17   0.019492   98.50  0.005870  (-0.027698  0.052541  0.048401)
 48:   1046.77   0.016039   81.06  0.004782  ( 0.027310 -0.057736  0.026502)
 49:   1063.72   0.013518   68.31  0.003966  ( 0.015977 -0.037458 -0.048034)
 50:   1103.85   0.003557   17.97  0.001006  (-0.002418  0.031616 -0.000273)
 51:   1161.79   0.038473  194.43  0.010334  (-0.055135  0.085398  0.001199)
 52:   1174.10   0.001033    5.22  0.000275  ( 0.002643  0.016303 -0.001355)
 53:   1194.59   0.001396    7.05  0.000365  ( 0.009091 -0.009451  0.013878)
 54:   1215.15   0.002115   10.69  0.000543  (-0.013227  0.019186  0.000183)
 55:   1225.98   0.001637    8.27  0.000417  ( 0.006000  0.019001  0.004444)
 56:   1242.56   0.019699   99.55  0.004947  (-0.026790  0.064581  0.007684)
 57:   1281.15   0.003202   16.18  0.000780  ( 0.027749 -0.000726 -0.003068)
 58:   1294.64   0.000784    3.96  0.000189  (-0.006365  0.012182  0.000257)
 59:   1303.84   0.001135    5.74  0.000272  ( 0.013874  0.002143 -0.008634)
 60:   1319.69   0.000323    1.63  0.000076  (-0.005638  0.006419  0.001850)
 61:   1342.51   0.002342   11.84  0.000544  ( 0.014919 -0.008138  0.015990)
 62:   1350.47   0.016200   81.87  0.003743  ( 0.018921 -0.057399  0.009531)
 63:   1370.54   0.003804   19.22  0.000866  (-0.006073  0.024581  0.015001)
 64:   1401.00   0.001194    6.03  0.000266  ( 0.002181  0.007604  0.014259)
 65:   1408.02   0.001184    5.99  0.000262  (-0.005219  0.015191 -0.002122)
 66:   1414.84   0.001948    9.84  0.000430  (-0.006979  0.019368  0.002399)
 67:   1439.17   0.002532   12.80  0.000549  (-0.020412  0.011319 -0.002066)
 68:   1465.14   0.015842   80.06  0.003374  (-0.028042  0.020645  0.046494)
 69:   1476.31   0.003197   16.16  0.000676  ( 0.000168  0.025187 -0.006433)
 70:   1488.06   0.004556   23.02  0.000955  ( 0.013008 -0.020955 -0.018631)
 71:   1489.69   0.000073    0.37  0.000015  ( 0.003398  0.000079  0.001911)
 72:   1494.59   0.000214    1.08  0.000045  (-0.001098  0.002022  0.006278)
 73:   1508.67   0.000649    3.28  0.000134  ( 0.004398  0.007696 -0.007464)
 74:   1514.12   0.001072    5.42  0.000221  ( 0.005417 -0.001343  0.013779)
 75:   1522.06   0.045380  229.33  0.009304  (-0.074963  0.058476 -0.016281)
 76:   1524.91   0.003991   20.17  0.000817  ( 0.012609  0.014461 -0.021182)
 77:   1705.61   0.036224  183.06  0.006628  (-0.008148  0.059783  0.054656)
 78:   1753.81   0.070359  355.56  0.012519  (-0.105500  0.019633 -0.031679)
 79:   2969.17   0.010370   52.41  0.001090  ( 0.023956  0.001734 -0.022650)
 80:   2998.04   0.004441   22.44  0.000462  ( 0.009877 -0.011196 -0.015471)
 81:   3003.51   0.005700   28.80  0.000592  (-0.023914 -0.002093 -0.003989)
 82:   3007.47   0.012880   65.09  0.001336  (-0.018914  0.031073 -0.003638)
 83:   3024.59   0.008503   42.97  0.000877  (-0.024641  0.006990 -0.014874)
 84:   3031.54   0.006869   34.71  0.000707  ( 0.026429 -0.002557 -0.001444)
 85:   3047.05   0.002173   10.98  0.000223  (-0.008767  0.005434 -0.010776)
 86:   3058.21   0.002716   13.72  0.000277  ( 0.011700  0.010265 -0.005904)
 87:   3068.02   0.010965   55.41  0.001115  (-0.024326 -0.015296  0.017016)
 88:   3082.05   0.001690    8.54  0.000171  ( 0.000755  0.005906  0.011649)
 89:   3101.71   0.004489   22.68  0.000452  (-0.002581  0.018280  0.010524)
 90:   3111.44   0.001903    9.62  0.000191  ( 0.013050 -0.004417  0.001012)
 91:   3120.99   0.001642    8.30  0.000164  (-0.005861  0.003353 -0.010890)
 92:   3500.63   0.037233  188.16  0.003319  (-0.029575 -0.047276  0.014468)
 93:   3541.43   0.013013   65.76  0.001147  (-0.007189  0.004955 -0.032718)
 94:   3624.50   0.089117  450.36  0.007673  (-0.061800  0.056582 -0.025536)
 95:   3662.91   0.007826   39.55  0.000667  (-0.006211 -0.022616 -0.010801)

* The epsilon (eps) is given for a Dirac delta lineshape.
** The dipole moment derivative (T) already includes vibrational overlap.

The first frequency considered to be a vibration is 6
The total number of vibrations considered is 90


--------------------------
THERMOCHEMISTRY AT 298.15K
--------------------------

Temperature         ...   298.15 K
Pressure            ...     1.00 atm
Total Mass          ...   219.24 AMU
Quasi RRHO          ...     True
Cut-Off Frequency   ...     1.00 cm^-1

Throughout the following assumptions are being made:
  (1) The electronic state is orbitally nondegenerate
  (2) There are no thermally accessible electronically excited states
  (3) Hindered rotations indicated by low frequency modes are not
      treated as such but are treated as vibrations and this may
      cause some error
  (4) All equations used are the standard statistical mechanics
      equations for an ideal gas
  (5) All vibrations are strictly harmonic

freq.      28.66  E(vib)   ...       0.55 
freq.      48.89  E(vib)   ...       0.53 
freq.      52.94  E(vib)   ...       0.52 
freq.      84.53  E(vib)   ...       0.48 
freq.     102.97  E(vib)   ...       0.46 
freq.     111.16  E(vib)   ...       0.45 
freq.     173.67  E(vib)   ...       0.38 
freq.     175.78  E(vib)   ...       0.38 
freq.     191.12  E(vib)   ...       0.36 
freq.     220.64  E(vib)   ...       0.33 
freq.     242.18  E(vib)   ...       0.31 
freq.     251.88  E(vib)   ...       0.30 
freq.     275.80  E(vib)   ...       0.28 
freq.     288.79  E(vib)   ...       0.27 
freq.     329.74  E(vib)   ...       0.24 
freq.     359.36  E(vib)   ...       0.22 
freq.     362.76  E(vib)   ...       0.22 
freq.     386.04  E(vib)   ...       0.20 
freq.     416.97  E(vib)   ...       0.18 
freq.     439.42  E(vib)   ...       0.17 
freq.     462.82  E(vib)   ...       0.16 
freq.     513.74  E(vib)   ...       0.13 
freq.     541.69  E(vib)   ...       0.12 
freq.     558.69  E(vib)   ...       0.12 
freq.     566.37  E(vib)   ...       0.11 
freq.     581.22  E(vib)   ...       0.11 
freq.     634.67  E(vib)   ...       0.09 
freq.     653.25  E(vib)   ...       0.08 
freq.     729.03  E(vib)   ...       0.06 
freq.     752.73  E(vib)   ...       0.06 
freq.     795.34  E(vib)   ...       0.05 
freq.     819.34  E(vib)   ...       0.05 
freq.     824.65  E(vib)   ...       0.04 
freq.     870.54  E(vib)   ...       0.04 
freq.     893.89  E(vib)   ...       0.03 
freq.     923.30  E(vib)   ...       0.03 
freq.     929.18  E(vib)   ...       0.03 
freq.     960.76  E(vib)   ...       0.03 
freq.     990.87  E(vib)   ...       0.02 
freq.     996.42  E(vib)   ...       0.02 
freq.    1019.85  E(vib)   ...       0.02 
freq.    1036.17  E(vib)   ...       0.02 
freq.    1046.77  E(vib)   ...       0.02 
freq.    1063.72  E(vib)   ...       0.02 
freq.    1103.85  E(vib)   ...       0.02 
freq.    1161.79  E(vib)   ...       0.01 
freq.    1174.10  E(vib)   ...       0.01 
freq.    1194.59  E(vib)   ...       0.01 
freq.    1215.15  E(vib)   ...       0.01 
freq.    1225.98  E(vib)   ...       0.01 
freq.    1242.56  E(vib)   ...       0.01 
freq.    1281.15  E(vib)   ...       0.01 
freq.    1294.64  E(vib)   ...       0.01 
freq.    1303.84  E(vib)   ...       0.01 
freq.    1319.69  E(vib)   ...       0.01 
freq.    1342.51  E(vib)   ...       0.01 
freq.    1350.47  E(vib)   ...       0.01 
freq.    1370.54  E(vib)   ...       0.01 
freq.    1401.00  E(vib)   ...       0.00 
freq.    1408.02  E(vib)   ...       0.00 
freq.    1414.84  E(vib)   ...       0.00 
freq.    1439.17  E(vib)   ...       0.00 
freq.    1465.14  E(vib)   ...       0.00 
freq.    1476.31  E(vib)   ...       0.00 
freq.    1488.06  E(vib)   ...       0.00 
freq.    1489.69  E(vib)   ...       0.00 
freq.    1494.59  E(vib)   ...       0.00 
freq.    1508.67  E(vib)   ...       0.00 
freq.    1514.12  E(vib)   ...       0.00 
freq.    1522.06  E(vib)   ...       0.00 
freq.    1524.91  E(vib)   ...       0.00 
freq.    1705.61  E(vib)   ...       0.00 
freq.    1753.81  E(vib)   ...       0.00 
freq.    2969.17  E(vib)   ...       0.00 
freq.    2998.04  E(vib)   ...       0.00 
freq.    3003.51  E(vib)   ...       0.00 
freq.    3007.47  E(vib)   ...       0.00 
freq.    3024.59  E(vib)   ...       0.00 
freq.    3031.54  E(vib)   ...       0.00 
freq.    3047.05  E(vib)   ...       0.00 
freq.    3058.21  E(vib)   ...       0.00 
freq.    3068.02  E(vib)   ...       0.00 
freq.    3082.05  E(vib)   ...       0.00 
freq.    3101.71  E(vib)   ...       0.00 
freq.    3111.44  E(vib)   ...       0.00 
freq.    3120.99  E(vib)   ...       0.00 
freq.    3500.63  E(vib)   ...       0.00 
freq.    3541.43  E(vib)   ...       0.00 
freq.    3624.50  E(vib)   ...       0.00 
freq.    3662.91  E(vib)   ...       0.00 

------------
INNER ENERGY
------------

The inner energy is: U= E(el) + E(ZPE) + E(vib) + E(rot) + E(trans)
    E(el)   - is the total energy from the electronic structure calculation
              = E(kin-el) + E(nuc-el) + E(el-el) + E(nuc-nuc)
    E(ZPE)  - the the zero temperature vibrational energy from the frequency calculation
    E(vib)  - the the finite temperature correction to E(ZPE) due to population
              of excited vibrational states
    E(rot)  - is the rotational thermal energy
    E(trans)- is the translational thermal energy

Summary of contributions to the inner energy U:
Electronic energy                ...   -783.77572647 Eh
Zero point energy                ...      0.26847847 Eh     168.47 kcal/mol
Thermal vibrational correction   ...      0.01352054 Eh       8.48 kcal/mol
Thermal rotational correction    ...      0.00141627 Eh       0.89 kcal/mol
Thermal translational correction ...      0.00141627 Eh       0.89 kcal/mol
-----------------------------------------------------------------------
Total thermal energy                   -783.49089492 Eh


Summary of corrections to the electronic energy:
(perhaps to be used in another calculation)
Total thermal correction                  0.01635308 Eh      10.26 kcal/mol
Non-thermal (ZPE) correction              0.26847847 Eh     168.47 kcal/mol
-----------------------------------------------------------------------
Total correction                          0.28483155 Eh     178.73 kcal/mol


--------
ENTHALPY
--------

The enthalpy is H = U + kB*T
                kB is Boltzmann's constant
Total thermal energy              ...   -783.49089492 Eh 
Thermal Enthalpy correction       ...      0.00094421 Eh       0.59 kcal/mol
-----------------------------------------------------------------------
Total Enthalpy                    ...   -783.48995071 Eh


Note: Only C1 symmetry has been detected, increase convergence thresholds 
      if your molecule has a higher symmetry. Symmetry factor of 1.0 is   
      used for the rotational entropy correction. 
 

Note: Rotational entropy computed according to Herzberg 
Infrared and Raman Spectra, Chapter V,1, Van Nostrand Reinhold, 1945 
Point Group:  C1, Symmetry Number:   1  
Rotational constants in cm-1:     0.033672     0.012897     0.011393 

Vibrational entropy computed according to the QRRHO of S. Grimme
Chem.Eur.J. 2012 18 9955 using a reference frequency of 100.0 cm-1


-------
ENTROPY
-------

The entropy contributions are T*S = T*(S(el)+S(vib)+S(rot)+S(trans))
     S(el)   - electronic entropy
     S(vib)  - vibrational entropy
     S(rot)  - rotational entropy
     S(trans)- translational entropy
The entropies will be listed as multiplied by the temperature to get
units of energy

Electronic entropy                ...      0.00000000 Eh      0.00 kcal/mol
Vibrational entropy               ...      0.02361985 Eh     14.82 kcal/mol
Rotational entropy                ...      0.01527816 Eh      9.59 kcal/mol
Translational entropy             ...      0.01998299 Eh     12.54 kcal/mol
-----------------------------------------------------------------------
Final entropy term                ...      0.05888100 Eh     36.95 kcal/mol

In case the symmetry of your molecule has not been determined correctly
or in case you have a reason to use a different symmetry number we print 
out the resulting rotational entropy values for sn=1,12:

 non-linear molecules -----------------------------------
|  sn= 1 | S(rot)=       0.01527816 Eh      9.59 kcal/mol|
|  sn= 2 | S(rot)=       0.01462370 Eh      9.18 kcal/mol|
|  sn= 3 | S(rot)=       0.01424087 Eh      8.94 kcal/mol|
|  sn= 4 | S(rot)=       0.01396924 Eh      8.77 kcal/mol|
|  sn= 5 | S(rot)=       0.01375856 Eh      8.63 kcal/mol|
|  sn= 6 | S(rot)=       0.01358641 Eh      8.53 kcal/mol|
|  sn= 7 | S(rot)=       0.01344086 Eh      8.43 kcal/mol|
|  sn= 8 | S(rot)=       0.01331479 Eh      8.36 kcal/mol|
|  sn= 9 | S(rot)=       0.01320358 Eh      8.29 kcal/mol|
|  sn=10 | S(rot)=       0.01310410 Eh      8.22 kcal/mol|
|  sn=11 | S(rot)=       0.01301411 Eh      8.17 kcal/mol|
|  sn=12 | S(rot)=       0.01293195 Eh      8.11 kcal/mol|
 linear molecules ---------------------------------------
|  Dinfh | S(rot)=       0.00955075 Eh      5.99 kcal/mol|
|  Cinfv | S(rot)=       0.01020521 Eh      6.40 kcal/mol|
 --------------------------------------------------------


-------------------
GIBBS FREE ENERGY
-------------------

The Gibbs free energy is G = H - T*S

Total enthalpy                    ...   -783.48995071 Eh 
Total entropy correction          ...     -0.05888100 Eh    -36.95 kcal/mol
-----------------------------------------------------------------------
Final Gibbs free energy         ...   -783.54883171 Eh

For completeness - the Gibbs free energy minus the electronic energy
G-E(el)                           ...      0.22689476 Eh    142.38 kcal/mol


Maximum memory used throughout the entire PROP-calculation: 98.8 MB

--------------------------------
SUGGESTED CITATIONS FOR THIS RUN
--------------------------------

Below you find a list of papers that are relevant to this ORCA run
We neither can nor want to force you to cite these papers, but we appreciate if you do
You receive ORCA, which is the product of decades of hard work by many enthusiastic individuals, for free
The only thing we kindly ask in return is that you cite our papers,
We deeply appreciate it, if you show your appreciation for ORCA by not just citing the generic ORCA reference.

Please note that relegating all ORCA citations to the supporting information does *not* help us.
SI sections are not indexed - citations you put there will not count into any citation statistics
But we need these citations in order to attract the funding resources that allow us to do what we are doing

Therefore, if you are a happy ORCA user, please consider citing a few of the papers listed below in the main body of your paper

In addition to the list printed below, the program has created the file m1_00_Vitamin_B5-GFN1_0005-B97-3C-TZ.bibtex that contains the list in bibtex format
You can import this file easily into all common literature databanks and citation aid programs


List of essential papers. We consider these as the minimum necessary citations

  1. Neese,F.
     Software update: the ORCA program system, version 5.0
     WIRES Comput. Molec. Sci., 2022 12(1)e1606
     doi.org/10.1002/wcms.1606

List of papers to cite with high priority. The work reported in these papers was absolutely
necessary for this run to complete.
Our perspective: the developers of density functionals and basis sets usually get cited in chemistry papers
Good! But without the algorithms to do something with them, the functionals or basis sets would not do anything.
Hence, in our opinion, the algorithm design and method developments papers are equally worthy of getting cited

  1. Neese,F.
     An improvement of the resolution of the identity approximation for the formation of the Coulomb matrix
     J. Comp. Chem., 2003 24(14)1740-1747
     doi.org/10.1002/jcc.10318
  2. Bykov,D.; Petrenko,T.; Izsak,R.; Kossmann,S.; Becker,U.; Valeev,E.; Neese,F.
     Efficient implementation of the analytic second derivatives of Hartree-Fock and hybrid DFT energies: a detailed analysis of different approximations
     Molec. Phys., 2015 113 1961-1977
     doi.org/10.1080/00268976.2015.1025114
  3. Neese,F.
     The SHARK Integral Generation and Digestion System
     J. Comp. Chem., 2022  1-16
     doi.org/10.1002/jcc.26942
  4. Grimme,S.; Antony,J.; Ehrlich,S.; Krieg,H.
     A consistent and accurate ab initio parametrization of density functional dispersion correction (DFT-D) for the 94 elements H-Pu
     J. Chem. Phys., 2010 132 154104
     doi.org/10.1063/1.3382344
  5. Grimme,S.; Ehrlich,S.; Goerigk,L.
     Effect of the damping function in dispersion corrected density functional theory
     J. Comput. Chem., 2011 32(7)1456-1465
     doi.org/10.1002/jcc.21759

List of suggested additional citations. These are papers that are important in the 'surrounding' of 
of this run, or papers that preceded the highly important papers. If you like your results we are grateful for a citation.

  1. Neese,F.
     The ORCA program system
     WIRES Comput. Molec. Sci., 2012 2(1)73-78
     doi.org/10.1002/wcms.81
  2. Neese,F.
     Software update: the ORCA program system, version 4.0
     WIRES Comput. Molec. Sci., 2018 8(1)1-6
     doi.org/10.1002/wcms.1327
  3. Neese,F.; Wennmohs,F.; Becker,U.; Riplinger,C.
     The ORCA quantum chemistry program package
     J. Chem. Phys., 2020 152 Art. No. L224108
     doi.org/10.1063/5.0004608

List of optional additional citations

  1. Neese,F.
     Approximate second-order SCF convergence for spin unrestricted wavefunctions
     Chem. Phys. Lett., 2000 325(1-3)93-98
     doi.org/10.1016/s0009-2614(00)00662-x

Timings for individual modules:

Sum of individual times          ...      350.798 sec (=   5.847 min)
Startup calculation              ...       43.655 sec (=   0.728 min)  12.4 %
SCF iterations                   ...       88.704 sec (=   1.478 min)  25.3 %
Property integrals               ...       75.342 sec (=   1.256 min)  21.5 %
SCF Response                     ...       59.369 sec (=   0.989 min)  16.9 %
Property calculations            ...       29.320 sec (=   0.489 min)   8.4 %
SCF Gradient evaluation          ...       54.299 sec (=   0.905 min)  15.5 %
Geometry relaxation              ...        0.109 sec (=   0.002 min)   0.0 %
                             ****ORCA TERMINATED NORMALLY****
TOTAL RUN TIME: 0 days 0 hours 5 minutes 54 seconds 60 msec
