35
 energy: -55.295141263787 gnorm: 0.000039202573 xtb: 6.7.0 (08769fc)
S            2.21081163535003       -0.10514414255040       -1.13604502430164
O            4.58012073766384       -0.80795381593951       -1.43862992221257
N            0.57400412463413        0.44372162983909        0.68456280811991
N           -3.85147370533946        1.07100893295164       -0.62509008125364
N           -3.11847142799951       -1.15814130854927       -0.43192078897385
N           -2.75655538134208        2.84332437901240        0.29956775381518
C            1.53650262221377       -0.31927209123383        1.31834919913317
C           -0.62390008518736        1.00587923964284        1.33853038721859
C            2.51548684064561       -0.70429315930368        0.45211671110429
C            3.73086979553156       -1.53440518862473        0.70605927435294
C           -1.85854806652862        0.58738572707180        0.57607762059810
C            0.78516259830052        0.62564121386654       -0.60571760447656
C            1.43218069143386       -0.63912993992791        2.77300075646446
C            4.92998583749151       -0.97795631532700       -0.08767215069140
C           -2.82228063618072        1.49571066015122        0.10702084625183
C           -2.07965663184350       -0.75169363055308        0.27617438381039
C           -3.96968434301195       -0.22511027157573       -0.86818867722068
C           -5.13663313715907       -0.68273260378829       -1.67594813467891
H           -0.50542777573790        2.09292143745570        1.35318700211455
H           -0.64783252519064        0.64462586386661        2.36840217016023
H            3.53565341550465       -2.56179265217942        0.38156607046148
H            3.96881950720529       -1.55359294476106        1.77150021402371
H            0.11262036508562        1.20182073400473       -1.22177860843670
H            0.53091737197206       -1.21913541141456        2.97608820839400
H            2.29374141345886       -1.22487394960328        3.08734347911735
H            1.39901088847032        0.27381118966258        3.36862062702615
H            5.78769041765562       -1.65402348202037        0.02150962225668
H            5.20163769628132        0.01030024176393        0.30009184932640
H           -1.38103851580481       -1.51430361772384        0.61176132561518
H           -2.29694348999303        3.20133002401537        1.11834832606318
H           -3.60006792033184        3.32873307883830        0.03566907945515
H            4.63483276968620       -1.63864040019121       -1.93053787609045
H           -4.80252302433357       -1.35415159481328       -2.46636160508054
H           -5.82426692497548       -1.23814904109756       -1.03638474293797
H           -5.65821456865204        0.16934900185111       -2.10625501537896
