35
 energy: -55.296393298801 gnorm: 0.000037739628 xtb: 6.7.0 (08769fc)
S            1.95226320527088       -0.38408969031704        2.06447196733261
O            2.83388244299085       -1.87150744735191       -1.71736072208581
N            0.79054104851424        1.02564743876331        0.35689444300369
N           -3.77406219418021        0.44036616373754        0.16822972584538
N           -2.52014774464207       -1.06034534749244       -1.14256899862752
N           -2.95145088877409        2.41178891457386        0.96532101720660
C            1.92879685100954        0.59108395624918       -0.29158629920236
C           -0.28463705756005        1.81852829073310       -0.27045850270091
C            2.69004854808719       -0.19958297187801        0.51974425222386
C            3.94217222739595       -0.93369912810073        0.17217436881792
C           -1.52185361211191        0.95892757155782       -0.38470769368222
C            0.66352552314024        0.59302466439019        1.59762458800287
C            2.22405955414866        0.98480851079164       -1.69904554945543
C            3.60150984772822       -2.22835984310885       -0.58879177414434
C           -2.74351985160311        1.28197787938981        0.22852249115653
C           -1.48047402000057       -0.24753228077370       -1.07323357179719
C           -3.63609551273732       -0.68920793851429       -0.50952543305291
C           -4.80849098882320       -1.60761944212432       -0.58385946054431
H            0.06807062851090        2.15257746691271       -1.24759126291388
H           -0.45439139419612        2.69491686101834        0.35957408926536
H            4.50096520567046       -1.18273153356901        1.07574184922439
H            4.56829543766294       -0.30592508967433       -0.46696349072387
H           -0.18215376389239        0.83968975402583        2.21939333402557
H            3.21164701666320        0.62524816984931       -1.97917908584806
H            1.49895107370362        0.53428830456546       -2.37723420720071
H            2.19398701927608        2.06826693009419       -1.81746117902377
H            3.03684254452795       -2.90555339609618        0.07119208659688
H            4.53968706211727       -2.71888662018006       -0.88452614697177
H           -0.57002904767956       -0.56861189623569       -1.57302753540214
H           -2.44094427882908        3.24574206551981        0.73166631576043
H           -3.92209532068656        2.56196387476100        1.19535517691922
H            2.80582311264483       -2.60214952521421       -2.34954182037950
H           -4.48407676316214       -2.64060376575134       -0.46659957572038
H           -5.53943959969650       -1.35325628334467        0.18068697505965
H           -5.27732209102185       -1.51298466743844       -1.56489792596300
