35
 energy: -55.289009556733 gnorm: 0.000007708370 xtb: 6.7.0 (08769fc)
S            2.05406830337388        0.27816089656316       -1.16215434556647
O            6.08851666422884        0.16888870887442        0.94384408952986
N            0.29016372865605       -0.63742235235300        0.35303535900316
N           -3.45425898965338        1.58050000515389       -0.41450575850077
N           -3.96974558461381       -0.52666111129035       -1.33127629481372
N           -1.72444831513086        1.92334045845071        1.03892512085460
C            1.47351609455020       -1.10759851719461        0.89461589843238
C           -1.02916924902688       -0.96027704531152        0.94753514285572
C            2.55455384119967       -0.69836716388075        0.17160013676734
C            4.00120768792885       -0.93592953222281        0.41571895810460
C           -2.16359829817730       -0.32427104716883        0.19609338274042
C            0.43692011076392        0.10125842999812       -0.72694025706742
C            1.45456977273519       -1.96477194719547        2.11548308642773
C            4.70687283621166        0.33457829973516        0.96888640984899
C           -2.46334607580928        1.04641230325538        0.29259664316733
C           -2.97762611568212       -1.07062778467370       -0.64903024918414
C           -4.17669094900996        0.78460151885176       -1.19245559749850
C           -5.30288391943696        1.38965847819340       -1.95813326545249
H           -0.99370895117155       -0.62844576666848        1.99032623912980
H           -1.12170191537841       -2.05075321874083        0.93544948299895
H            4.49968836900896       -1.20082122431907       -0.51998868362224
H            4.13897216709124       -1.76031319832919        1.11853522734927
H           -0.39331288821737        0.53530104123626       -1.26090826655993
H            1.01545978367064       -1.42582217487126        2.95629032044535
H            0.86459707616791       -2.86604875248334        1.94262203149816
H            2.46725632237879       -2.25879288309893        2.38357607338681
H            4.33125677307288        0.55149468654864        1.98139071417867
H            4.46877594979550        1.18185928720923        0.31482398637609
H           -2.81715655463970       -2.13806265346763       -0.77472192239947
H           -2.17581794508316        2.81882849224625        1.15311859907574
H           -1.27147975509247        1.57507367975856        1.86683553649120
H            6.40567782128453       -0.40256319228759        1.65515131553473
H           -6.24606891685950        1.12898426828963       -1.47472416689748
H           -5.20795327549532        2.47304295173652       -1.98319920384670
H           -5.32569180052631        0.98902324761322       -2.97060346869955
