
                                 *****************
                                 * O   R   C   A *
                                 *****************

                                            #,                                       
                                            ###                                      
                                            ####                                     
                                            #####                                    
                                            ######                                   
                                           ########,                                 
                                     ,,################,,,,,                         
                               ,,#################################,,                 
                          ,,##########################################,,             
                       ,#########################################, ''#####,          
                    ,#############################################,,   '####,        
                  ,##################################################,,,,####,       
                ,###########''''           ''''###############################       
              ,#####''   ,,,,##########,,,,          '''####'''          '####       
            ,##' ,,,,###########################,,,                        '##       
           ' ,,###''''                  '''############,,,                           
         ,,##''                                '''############,,,,        ,,,,,,###''
      ,#''                                            '''#######################'''  
     '                                                          ''''####''''         
             ,#######,   #######,   ,#######,      ##                                
            ,#'     '#,  ##    ##  ,#'     '#,    #''#        ,####,   ,####,        
            ##       ##  ##   ,#'  ##            #'  '#       #'       #'  '#        
            ##       ##  #######   ##           ,######,      #####,   #    #        
            '#,     ,#'  ##    ##  '#,     ,#' ,#      #,     #,   #   #,  ,#        
             '#######'   ##     ##  '#######'  #'      '#     '####' # '####'        



                #########################################################
                #                        -***-                          #
                #          Department of theory and spectroscopy        #
                #                                                       #
                #                      Frank Neese                      #
                #                                                       #
                #     Directorship, Architecture, Infrastructure        #
                #                    SHARK, DRIVERS                     #
                #        Core code/Algorithms in most modules           #
                #                                                       #
                #        Max Planck Institute fuer Kohlenforschung      #
                #                Kaiser Wilhelm Platz 1                 #
                #                 D-45470 Muelheim/Ruhr                 #
                #                      Germany                          #
                #                                                       #
                #                  All rights reserved                  #
                #                        -***-                          #
                #########################################################


                         Program Version 6.0.1  -  RELEASE   -


 With contributions from (in alphabetic order):
[Max-Planck-Institut fuer Kohlenforschung]                               
  Daniel Aravena         : Magnetic Suceptibility                        
  Michael Atanasov       : Ab Initio Ligand Field Theory (pilot matlab implementation)
  Alexander A. Auer      : GIAO ZORA, VPT2 properties, NMR spectrum      
  Ute Becker             : All parallelization in ORCA, NUMFREQ, NUMCALC 
  Giovanni Bistoni       : ED, misc. LED, open-shell LED, HFLD           
  Martin Brehm           : Molecular dynamics                            
  Dmytro Bykov           : pre 5.0 version of the SCF Hessian            
  Marcos Casanova-Páez   : Triplet and SCS-CIS(D). UHF-(DLPNO)-IP/EA/STEOM-CCSD. UHF-CVS-IP/STEOM-CCSD   
  Vijay G. Chilkuri      : MRCI spin determinant printing, contributions to CSF-ICE 
  Pauline Colinet        : FMM embedding                                 
  Dipayan Datta          : RHF DLPNO-CCSD density                        
  Achintya Kumar Dutta   : EOM-CC, STEOM-CC                              
  Nicolas Foglia         : Exact transition moments, OPA infrastructure, MCD improvements    
  Dmitry Ganyushin       : Spin-Orbit,Spin-Spin,Magnetic field MRCI      
  Miquel Garcia-Rates    : C-PCM and meta-GGA Hessian, CCSD/C-PCM, Gaussian charge scheme 
  Tiago L. C. Gouveia    : GS-ROHF, GS-ROCIS                             
  Yang Guo               : DLPNO-NEVPT2, F12-NEVPT2, CIM, IAO-localization        
  Andreas Hansen         : Spin unrestricted coupled pair/coupled cluster methods 
  Ingolf Harden          : AUTO-CI MPn and infrastructure                
  Benjamin Helmich-Paris : MC-RPA, TRAH-(SCF,CASSCF), AVAS, COSX integrals, SCF dyn. polar. 
  Lee Huntington         : MR-EOM, pCC                                   
  Robert Izsak           : Overlap fitted RIJCOSX, COSX-SCS-MP3, EOM     
  Riya Kayal             : Wick's Theorem for AUTO-CI, AUTO-CI UHF-CCSDT 
  Emily Kempfer          : AUTO-CI, RHF CISDT and CCSDT                  
  Christian Kollmar      : KDIIS, OOCD, Brueckner-CCSD(T), CCSD density, CASPT2, CASPT2-K, improved NEVPT2 
  Axel Koslowski         : Symmetry handling                             
  Simone Kossmann        : meta-GGA functionals, TD-DFT gradient, OOMP2, (MP2 Hessian; deprecated post 5.0) 
  Lucas Lang             : DCDCAS                                        
  Marvin Lechner         : AUTO-CI (C++ implementation), FIC-MRCC        
  Spencer Leger          : CASSCF response                               
  Dagmar Lenk            : GEPOL surface, SMD, ORCA-2-JSON               
  Dimitrios Liakos       : Extrapolation schemes; Compound Job, initial MDCI parallelization 
  Dimitrios Manganas     : Further ROCIS development; embedding schemes. LFT, Crystal Embedding 
  Dimitrios Pantazis     : SARC Basis sets                               
  Anastasios Papadopoulos: AUTO-CI, single reference methods and gradients 
  Taras Petrenko         : pre 6.0 DFT Hessian and TD-DFT gradient, (ASA, deprecated), ECA, 1-Electron XAS/XES, NRVS 
  Peter Pinski           : DLPNO-MP2, DLPNO-MP2 Gradient                 
  Christoph Reimann      : Effective Core Potentials                     
  Marius Retegan         : Local ZFS, SOC                                
  Christoph Riplinger    : Optimizer, TS searches, QM/MM, DLPNO-CCSD(T), (RO)-DLPNO pert. Triples 
  Michael Roemelt        : Original ROCIS implementation                 
  Masaaki Saitow         : Open-shell DLPNO-CCSD energy and density      
  Barbara Sandhoefer     : DKH picture change effects                    
  Kantharuban Sivalingam : CASSCF convergence/infrastructure, NEVPT2 and variants, FIC-MRCI 
  Bernardo de Souza      : ESD, SOC TD-DFT                               
  Georgi L. Stoychev     : AutoAux, RI-MP2 NMR, DLPNO-MP2 response, X2C  
  Van Anh Tran           : RI-MP2 g-tensors                              
  Willem Van den Heuvel  : Paramagnetic NMR                              
  Zikuan Wang            : NOTCH, Electric field optimization            
  Frank Wennmohs         : Technical directorship and infrastructure     
  Hang Xu                : AUTO-CI-Response properties                   
                                                                         
[FACCTs GmbH]                                                            
  Markus Bursch, Miquel Garcia-Rates, Christoph Riplinger, Bernardo de Souza, Georgi L. Stoychev 
                                                                 
  APM, Basis sets (HGBS, AHGBS, def-TZVP (Ac-Lr), def2-XVPD (La-Lu)), CI-OPT, improved COSX, DLPNO-Multilevel,           
  DOCKER, DRACO, updates on ESD, GOAT, IRC, LR-CPCM, MBIS, meta-GGA TD-DFT gradient, ML-optimized integration grids, 
  MM, NACMEs, nearIR, NEB, NEB-TS, NL-DFT gradient (VV10), 2- and 3-layer-ONIOM, interface openCOSMO-RS, QMMM,   
  Crystal-QMMM, SF, symmetry and pop. for TD-DFT, r2SCAN hybrids, SOLVATOR                                   
                                                                         
[Other institutions]                                                     
  V. Asgeirsson          : NEB                                           
  Christoph Bannwarth    : sTDA-DFT, sTD-DFT, PBEh-3c, B97-3c, D3        
  Sebastian Ehlert       : rSCAN, r2SCAN, r2SCAN-3c, D4, dhf basis sets  
  Marvin Friede          : D4 for Fr, Ra, Ac-Lr                          
  Lars Goerigk           : TD-DFT with DH, B97 family of functionals     
  Stefan Grimme          : VdW corrections, initial TS optimization, DFT functionals, gCP, sTDA/sTD-DF 
  Waldemar Hujo          : DFT-NL                                        
  H. Jonsson             : NEB                                           
  Holger Kruse           : gCP                                           
  Marcel Mueller         : wB97X-3c, vDZP basis set                      
  Hagen Neugebauer       : wr2SCAN                                       
  Tobias Risthaus        : range-separated hybrid DFT                    
  Lukas Wittmann         : regularized MP2, r2SCAN double-hybrids, wr2SCAN        
                                                                         
We gratefully acknowledge several colleagues who have allowed us to      
interface, adapt or use parts of their codes:                            
  Ed Valeev, F. Pavosevic, A. Kumar             : LibInt (2-el integral package), F12 methods 
  Garnet Chan, S. Sharma, J. Yang, R. Olivares  : DMRG                   
  Ulf Ekstrom                                   : XCFun DFT Library      
  Mihaly Kallay                                 : mrcc  (arbitrary order and MRCC methods)
  Frank Weinhold                                : gennbo (NPA and NBO analysis)           
  Simon Mueller                                 : openCOSMO-RS                            
  Christopher J. Cramer and Donald G. Truhlar   : smd solvation model                     
  S Lehtola, MJT Oliveira, MAL Marques          : LibXC Library                           
  Liviu Ungur et al                             : ANISO software                          


 Your calculation uses the libint2 library for the computation of 2-el integrals
 For citations please refer to: http://libint.valeyev.net

 Your ORCA version has been built with support for libXC version: 6.2.2
 For citations please refer to: https://libxc.gitlab.io

 This ORCA versions uses:
   CBLAS   interface :  Fast vector & matrix operations
   LAPACKE interface :  Fast linear algebra routines
   SCALAPACK package :  Parallel linear algebra routines
   Shared memory     :  Shared parallel matrices
   BLAS/LAPACK       :  OpenBLAS 0.3.27  USE64BITINT DYNAMIC_ARCH NO_AFFINITY Zen SINGLE_THREADED
        Core in use  :  Zen
   Copyright (c) 2011-2014, The OpenBLAS Project


NOTE: MaxCore=6000 MB was set to SCF,MP2,MDCI,CIPSI,MRCI and CIS
      => If you want to overwrite this, your respective input block should be placed after the MaxCore statement
Your calculation utilizes the atom-pairwise dispersion correction
with the Becke-Johnson damping scheme (D3BJ)


Your calculation employs the composite approach B97-3c by Grimme and coworkers.
For the correct reference, please check the publication list of the Grimme group:
http://www.thch.uni-bonn.de/tc/index.php?section=publikationen&subsection=grimme#2017
   

XCFun DFT library Copyright 2009-2010 Ulf Ekstrom and contributors.
See http://admol.org/xcfun for more information.
This is free software; see the source code for copying conditions.
There is ABSOLUTELY NO WARRANTY; not even for MERCHANTABILITY or FITNESS FOR A PARTICULAR PURPOSE.
For details see the documentation.
Scientific users of this library should cite U. Ekstrom, L. Visscher, R. Bast, A. J. Thorvaldsen and K. Ruud;
J.Chem.Theor.Comp. 2010, DOI: 10.1021/ct100117s
XCFun Version 0.99 

================================================================================

----- Orbital basis set information -----
Your calculation utilizes the basis: def2-mTZVP
----- AuxJ basis set information -----
Your calculation utilizes the basis: def2-mTZVP/J
================================================================================
                                        WARNINGS
                       Please study these warnings very carefully!
================================================================================


WARNING: Geometry Optimization
  ===> : Switching off AutoStart
         For restart on a previous wavefunction, please use MOREAD

================================================================================
                                       INPUT FILE
================================================================================
NAME = m1_00_Vitamin_B7-GFN1_000-B97-3C-TZ.inp
|  1> %pal nprocs 16 end
|  2> %MaxCore 6000
|  3> # put your comments here
|  4> ! B97-3C  OPT  FREQ DEFGRID3 NOTRAH
|  5> %scf MaxIter 800 end
|  6> %output
|  7> Print [P_Hirshfeld] 1
|  8> end
|  9> %geom
| 10> MaxIter 3000
| 11>  TolE 1e-6 #TolE 5e-6 Energy change (a.u.)
| 12>  TolRMSG 3e-5 #TolRMSG 1e-4 RMS gradient (a.u.)
| 13>  TolMaxG 1e-4 #TolMaxG 3e-3 Max. element of gradient (a.u.)
| 14>  TolRMSD 2e-3 #TolRMSD 2e-3 RMS displacement (a.u.)
| 15>  TolMaxD 4e-3 #TolMaxD 4e-3 Max. displacement (a.u.)
| 16> end
| 17> * xyz 0 1
| 18>  S 2.03950482830599 4.47473354573117 3.85234692388833
| 19>  O 0.30522726503160 3.51866859295865 -1.10917859588546
| 20>  O 0.23232533557998 1.09307481490227 0.00004179716284
| 21>  O -0.87173251073307 2.15685367599813 1.62502889426946
| 22>  N 1.90255128122681 4.82500027884314 -0.06553748662907
| 23>  N -0.16947389041633 4.82237379584476 0.73172735476583
| 24>  C 2.07589276067915 5.24001962092423 1.31525401195332
| 25>  C 0.61731859100396 5.44858961764890 1.78544725800136
| 26>  C 2.75357213547512 4.17357985887183 2.21178405409806
| 27>  C 0.39680420042719 4.80002494231425 3.15491694597926
| 28>  C 2.49807452106557 2.75642152183664 1.67835006101766
| 29>  C 2.65292439221093 1.62066743160100 2.69275952755620
| 30>  C 0.63990665482692 4.29387218019443 -0.23155996209579
| 31>  C 2.04748539815703 0.31370869573690 2.15962772781214
| 32>  C 0.50904851550184 0.27865951238713 2.20555537971347
| 33>  C -0.12459876634344 1.27679585414673 1.25840676528504
| 34>  H 2.64626222517381 6.17428207183701 1.36386941642153
| 35>  H 0.37564784382648 6.51879172272570 1.83059294698875
| 36>  H 3.82761587521564 4.36226239037526 2.28943043046023
| 37>  H -0.13630894615684 5.46693929267591 3.83212316403077
| 38>  H -0.16771572596951 3.87077825832158 3.05857916968000
| 39>  H 1.47929923040802 2.73311512482886 1.29870676468495
| 40>  H 3.16622076673821 2.57401181961821 0.83010572937050
| 41>  H 2.65221288611696 4.32301809684000 -0.51951105431080
| 42>  H -0.97462289435845 4.26417369364941 0.98670460903990
| 43>  H 3.71381996590912 1.45822335001866 2.90742328440575
| 44>  H 2.16412986493292 1.89709620071374 3.63284467757961
| 45>  H 2.37677989545519 0.14565980623680 1.12959936611676
| 46>  H 2.41912076859531 -0.51595994449017 2.76835529108448
| 47>  H 0.14718670144836 0.48106529381227 3.21588039739489
| 48>  H 0.17732591527836 -0.71940256351261 1.90741601679601
| 49>  H -0.01770608461335 1.88373944641847 -0.55168486663201
| 50> *
| 51> 
| 52> 
| 53> 
| 54> 
| 55>                          ****END OF INPUT****
================================================================================

                       *****************************
                       * Geometry Optimization Run *
                       *****************************

Geometry optimization settings:
Update method            Update   .... BFGS
Choice of coordinates    CoordSys .... (2022) Redundant Internals
Initial Hessian          InHess   .... Almloef's Model
Max. no of cycles        MaxIter  .... 3000

Convergence Tolerances:
Energy Change            TolE     ....  1.0000e-06 Eh
Max. Gradient            TolMAXG  ....  1.0000e-04 Eh/bohr
RMS Gradient             TolRMSG  ....  3.0000e-05 Eh/bohr
Max. Displacement        TolMAXD  ....  4.0000e-03 bohr
RMS Displacement         TolRMSD  ....  2.0000e-03 bohr
Strict Convergence                .... False

------------------------------------------------------------------------------
                        ORCA OPTIMIZATION COORDINATE SETUP
------------------------------------------------------------------------------

The optimization will be done in redundant internal coordinates (2022)
Making redundant internal coordinates   ...  (2022 redundants) done
Evaluating the initial hessian          ...  (Almloef) done
Evaluating the coordinates              ...  done
Calculating the B-matrix                .... done
Calculating the G-matrix                .... done
Diagonalizing the G-matrix              .... done
Small eigenvalue found = 8.352e-03
Small eigenvalue found = 1.499e-02
The first mode is                       ....   81
The number of degrees of freedom        ....   90

    -----------------------------------------------------------------
                    Redundant Internal Coordinates


    -----------------------------------------------------------------
         Definition                    Initial Value    Approx d2E/dq
    -----------------------------------------------------------------
      1. B(C   6,N   4)                  1.4522         0.445293   
      2. B(C   7,N   5)                  1.4565         0.438240   
      3. B(C   7,C   6)                  1.5466         0.351453   
      4. B(C   8,C   6)                  1.5493         0.348014   
      5. B(C   8,S   0)                  1.8144         0.354332   
      6. B(C   9,C   7)                  1.5312         0.371871   
      7. B(C   9,S   0)                  1.8140         0.354814   
      8. B(C  10,C   8)                  1.5356         0.365924   
      9. B(C  11,C  10)                  1.5307         0.372660   
     10. B(C  12,N   5)                  1.3647         0.614161   
     11. B(C  12,N   4)                  1.3798         0.580899   
     12. B(C  12,O   1)                  1.2179         1.053235   
     13. B(C  13,C  11)                  1.5359         0.365592   
     14. B(C  14,C  13)                  1.5395         0.360734   
     15. B(C  15,O   2)                  1.3208         0.721454   
     16. B(C  15,C  14)                  1.5149         0.394905   
     17. B(C  15,O   3)                  1.2112         1.079102   
     18. B(H  16,C   6)                  1.0957         0.352654   
     19. B(H  17,C   7)                  1.0981         0.349571   
     20. B(H  18,C   8)                  1.0933         0.355824   
     21. B(H  19,C   9)                  1.0898         0.360408   
     22. B(H  20,C   9)                  1.0915         0.358066   
     23. B(H  21,C  10)                  1.0875         0.363472   
     24. B(H  22,C  10)                  1.0951         0.353436   
     25. B(H  23,N   4)                  1.0100         0.432731   
     26. B(H  24,N   5)                  1.0124         0.428978   
     27. B(H  24,O   3)                  2.2043         0.005380   
     28. B(H  25,C  11)                  1.0945         0.354174   
     29. B(H  26,C  11)                  1.0950         0.353506   
     30. B(H  27,C  13)                  1.0944         0.354372   
     31. B(H  28,C  13)                  1.0941         0.354742   
     32. B(H  29,C  14)                  1.0921         0.357341   
     33. B(H  30,C  14)                  1.0932         0.355910   
     34. B(H  31,O   3)                  2.3542         0.003102   
     35. B(H  31,O   1)                  1.7573         0.027793   
     36. B(H  31,O   2)                  0.9960         0.455501   
     37. A(C   8,S   0,C   9)           92.2076         0.395886   
     38. A(C  15,O   2,H  31)          110.4553         0.371340   
     39. A(C   6,N   4,C  12)          109.4898         0.399304   
     40. A(C   6,N   4,H  23)          118.7394         0.339208   
     41. A(C  12,N   4,H  23)          115.7100         0.354725   
     42. A(C   7,N   5,C  12)          110.9027         0.402106   
     43. A(C   7,N   5,H  24)          118.9775         0.337814   
     44. A(C  12,N   5,H  24)          115.8457         0.357565   
     45. A(C   8,C   6,H  16)          109.4846         0.319481   
     46. A(N   4,C   6,H  16)          110.3655         0.330700   
     47. A(C   7,C   6,C   8)          109.2332         0.355281   
     48. A(N   4,C   6,C   7)          102.4176         0.368242   
     49. A(C   7,C   6,H  16)          111.2507         0.319995   
     50. A(N   4,C   6,C   8)          113.9356         0.367621   
     51. A(C   6,C   7,H  17)          110.5784         0.319536   
     52. A(N   5,C   7,C   9)          112.7753         0.370814   
     53. A(N   5,C   7,C   6)          103.3862         0.367235   
     54. A(N   5,C   7,H  17)          109.2613         0.329350   
     55. A(C   9,C   7,H  17)          110.1413         0.322502   
     56. A(C   6,C   7,C   9)          110.5233         0.359307   
     57. A(C   6,C   8,H  18)          110.6113         0.319949   
     58. A(S   0,C   8,C   6)          103.6997         0.374501   
     59. A(C   6,C   8,C  10)          111.1889         0.357724   
     60. A(S   0,C   8,C  10)          113.6898         0.377763   
     61. A(S   0,C   8,H  18)          107.0842         0.337171   
     62. A(C  10,C   8,H  18)          110.3284         0.322587   
     63. A(S   0,C   9,C   7)          106.8214         0.378908   
     64. A(H  19,C   9,H  20)          108.8342         0.290620   
     65. A(C   7,C   9,H  20)          110.8623         0.323774   
     66. A(S   0,C   9,H  20)          110.4632         0.337600   
     67. A(C   7,C   9,H  19)          111.5315         0.324121   
     68. A(S   0,C   9,H  19)          108.2897         0.337967   
     69. A(C   8,C  10,C  11)          115.9579         0.361918   
     70. A(H  21,C  10,H  22)          107.3139         0.290412   
     71. A(C  11,C  10,H  22)          109.1487         0.323196   
     72. A(C   8,C  10,H  22)          108.7402         0.322231   
     73. A(C  11,C  10,H  21)          108.0734         0.324685   
     74. A(C   8,C  10,H  21)          107.2726         0.323714   
     75. A(C  13,C  11,H  26)          109.6854         0.322194   
     76. A(C  10,C  11,H  26)          109.6627         0.323206   
     77. A(C  13,C  11,H  25)          108.8972         0.322293   
     78. A(H  25,C  11,H  26)          107.5630         0.289243   
     79. A(C  10,C  11,H  25)          109.7648         0.323307   
     80. A(C  10,C  11,C  13)          111.1913         0.361862   
     81. A(O   1,C  12,N   4)          125.6756         0.466060   
     82. A(N   4,C  12,N   5)          107.9823         0.422727   
     83. A(O   1,C  12,N   5)          126.3130         0.470842   
     84. A(H  27,C  13,H  28)          107.7592         0.289427   
     85. A(C  11,C  13,H  28)          108.5581         0.322378   
     86. A(C  14,C  13,H  27)          108.9820         0.321617   
     87. A(C  11,C  13,H  27)          109.8019         0.322323   
     88. A(C  14,C  13,H  28)          107.7929         0.321672   
     89. A(C  11,C  13,C  14)          113.7619         0.359861   
     90. A(H  29,C  14,H  30)          108.7216         0.289955   
     91. A(C  15,C  14,H  30)          107.7047         0.326665   
     92. A(C  13,C  14,H  30)          108.4140         0.321846   
     93. A(C  15,C  14,H  29)          108.5241         0.326880   
     94. A(C  13,C  14,H  29)          110.7624         0.322057   
     95. A(C  13,C  14,C  15)          112.6024         0.364631   
     96. A(O   3,C  15,C  14)          123.1950         0.439306   
     97. A(O   2,C  15,C  14)          113.0153         0.408795   
     98. A(O   2,C  15,O   3)          123.7870         0.487194   
     99. D(H  16,C   6,N   4,C  12)   -141.7237         0.016911   
    100. D(C   7,C   6,N   4,C  12)    -23.1941         0.016911   
    101. D(C   8,C   6,N   4,H  23)    -41.3337         0.016911   
    102. D(C   8,C   6,N   4,C  12)     94.6313         0.016911   
    103. D(C   7,C   6,N   4,H  23)   -159.1592         0.016911   
    104. D(C   6,C   7,N   5,H  24)    138.7757         0.016376   
    105. D(C   6,C   7,N   5,C  12)      0.6213         0.016376   
    106. D(N   5,C   7,C   6,H  16)    131.0952         0.009945   
    107. D(N   5,C   7,C   6,N   4)     13.1926         0.009945   
    108. D(C   9,C   7,C   6,H  16)   -107.9752         0.009945   
    109. D(C   9,C   7,N   5,C  12)   -118.7700         0.016376   
    110. D(N   5,C   7,C   6,C   8)   -107.9257         0.009945   
    111. D(C   9,C   7,C   6,C   8)     13.0039         0.009945   
    112. D(C   9,C   7,C   6,N   4)    134.1222         0.009945   
    113. D(H  17,C   7,N   5,C  12)    118.3889         0.016376   
    114. D(C   9,C   7,N   5,H  24)     19.3845         0.016376   
    115. D(C  10,C   8,C   6,H  16)   -150.9412         0.009767   
    116. D(C  10,C   8,C   6,C   7)     87.0103         0.009767   
    117. D(S   0,C   8,C   6,H  16)     86.5089         0.009767   
    118. D(S   0,C   8,C   6,C   7)    -35.5395         0.009767   
    119. D(C  10,C   8,C   6,N   4)    -26.8208         0.009767   
    120. D(H  18,C   8,S   0,C   9)    156.3116         0.003507   
    121. D(S   0,C   8,C   6,N   4)   -149.3706         0.009767   
    122. D(C   6,C   8,S   0,C   9)     39.3122         0.003507   
    123. D(C  10,C   8,S   0,C   9)    -81.5661         0.003507   
    124. D(S   0,C   9,C   7,C   6)     15.7587         0.011048   
    125. D(S   0,C   9,C   7,N   5)    130.9271         0.011048   
    126. D(H  20,C   9,S   0,C   8)     88.1004         0.003513   
    127. D(C   7,C   9,S   0,C   8)    -32.5577         0.003513   
    128. D(S   0,C   9,C   7,H  17)   -106.7246         0.011048   
    129. D(H  19,C   9,S   0,C   8)   -152.8057         0.003513   
    130. D(H  19,C   9,C   7,H  17)     11.4218         0.011048   
    131. D(H  19,C   9,C   7,C   6)    133.9052         0.011048   
    132. D(H  19,C   9,C   7,N   5)   -110.9265         0.011048   
    133. D(H  21,C  10,C   8,H  18)   -160.8194         0.010719   
    134. D(H  21,C  10,C   8,C   6)    -37.7097         0.010719   
    135. D(H  21,C  10,C   8,S   0)     78.8714         0.010719   
    136. D(C  11,C  10,C   8,H  18)     78.3358         0.010719   
    137. D(C  11,C  10,C   8,C   6)   -158.5545         0.010719   
    138. D(C  11,C  10,C   8,S   0)    -41.9734         0.010719   
    139. D(H  25,C  11,C  10,H  22)     49.6908         0.011092   
    140. D(H  25,C  11,C  10,H  21)    166.0952         0.011092   
    141. D(H  25,C  11,C  10,C   8)    -73.4909         0.011092   
    142. D(C  13,C  11,C  10,H  22)    -70.8676         0.011092   
    143. D(C  13,C  11,C  10,H  21)     45.5368         0.011092   
    144. D(C  13,C  11,C  10,C   8)    165.9507         0.011092   
    145. D(N   4,C  12,N   5,H  24)   -154.8922         0.030499   
    146. D(N   4,C  12,N   5,C   7)    -15.3188         0.030499   
    147. D(O   1,C  12,N   5,H  24)     26.9905         0.030499   
    148. D(O   1,C  12,N   5,C   7)    166.5639         0.030499   
    149. D(N   5,C  12,N   4,H  23)    162.2203         0.027070   
    150. D(N   5,C  12,N   4,C   6)     24.7862         0.027070   
    151. D(O   1,C  12,N   4,H  23)    -19.6472         0.027070   
    152. D(O   1,C  12,N   4,C   6)   -157.0813         0.027070   
    153. D(H  27,C  13,C  11,H  26)    168.1471         0.010701   
    154. D(H  27,C  13,C  11,H  25)    -74.3875         0.010701   
    155. D(H  27,C  13,C  11,C  10)     46.6812         0.010701   
    156. D(C  14,C  13,C  11,H  26)     45.7182         0.010701   
    157. D(C  14,C  13,C  11,H  25)    163.1836         0.010701   
    158. D(C  14,C  13,C  11,C  10)    -75.7477         0.010701   
    159. D(C  15,C  14,C  13,H  28)   -172.8258         0.010437   
    160. D(C  15,C  14,C  13,H  27)    -56.1364         0.010437   
    161. D(C  15,C  14,C  13,C  11)     66.7429         0.010437   
    162. D(H  29,C  14,C  13,H  28)     65.4479         0.010437   
    163. D(H  29,C  14,C  13,H  27)   -177.8628         0.010437   
    164. D(H  29,C  14,C  13,C  11)    -54.9835         0.010437   
    165. D(O   3,C  15,C  14,H  29)      1.9375         0.011588   
    166. D(O   3,C  15,C  14,C  13)   -121.0499         0.011588   
    167. D(O   2,C  15,C  14,H  30)    -61.1021         0.011588   
    168. D(O   2,C  15,C  14,H  29)   -178.6378         0.011588   
    169. D(O   2,C  15,C  14,C  13)     58.3748         0.011588   
    170. D(C  14,C  15,O   2,H  31)   -166.2723         0.039211   
    171. D(O   3,C  15,O   2,H  31)     13.1485         0.039211   
    -----------------------------------------------------------------

Number of atoms                         .... 32
Number of degrees of freedom            .... 171


         *************************************************************
         *                GEOMETRY OPTIMIZATION CYCLE   1            *
         *************************************************************
---------------------------------
CARTESIAN COORDINATES (ANGSTROEM)
---------------------------------
  S      2.039505    4.474734    3.852347
  O      0.305227    3.518669   -1.109179
  O      0.232325    1.093075    0.000042
  O     -0.871733    2.156854    1.625029
  N      1.902551    4.825000   -0.065537
  N     -0.169474    4.822374    0.731727
  C      2.075893    5.240020    1.315254
  C      0.617319    5.448590    1.785447
  C      2.753572    4.173580    2.211784
  C      0.396804    4.800025    3.154917
  C      2.498075    2.756422    1.678350
  C      2.652924    1.620667    2.692760
  C      0.639907    4.293872   -0.231560
  C      2.047485    0.313709    2.159628
  C      0.509049    0.278660    2.205555
  C     -0.124599    1.276796    1.258407
  H      2.646262    6.174282    1.363869
  H      0.375648    6.518792    1.830593
  H      3.827616    4.362262    2.289430
  H     -0.136309    5.466939    3.832123
  H     -0.167716    3.870778    3.058579
  H      1.479299    2.733115    1.298707
  H      3.166221    2.574012    0.830106
  H      2.652213    4.323018   -0.519511
  H     -0.974623    4.264174    0.986705
  H      3.713820    1.458223    2.907423
  H      2.164130    1.897096    3.632845
  H      2.376780    0.145660    1.129599
  H      2.419121   -0.515960    2.768355
  H      0.147187    0.481065    3.215880
  H      0.177326   -0.719403    1.907416
  H     -0.017706    1.883739   -0.551685

----------------------------
CARTESIAN COORDINATES (A.U.)
----------------------------
  NO LB      ZA    FRAG     MASS         X           Y           Z
   0 S    16.0000    0    32.060    3.854106    8.456021    7.279881
   1 O     8.0000    0    15.999    0.576796    6.649320   -2.096044
   2 O     8.0000    0    15.999    0.439031    2.065612    0.000079
   3 O     8.0000    0    15.999   -1.647336    4.075863    3.070860
   4 N     7.0000    0    14.007    3.595301    9.117929   -0.123848
   5 N     7.0000    0    14.007   -0.320259    9.112966    1.382764
   6 C     6.0000    0    12.011    3.922869    9.902202    2.485470
   7 C     6.0000    0    12.011    1.166563   10.296342    3.374006
   8 C     6.0000    0    12.011    5.203497    7.886923    4.179666
   9 C     6.0000    0    12.011    0.749851    9.070733    5.961929
  10 C     6.0000    0    12.011    4.720677    5.208882    3.171622
  11 C     6.0000    0    12.011    5.013301    3.062618    5.088578
  12 C     6.0000    0    12.011    1.209248    8.114242   -0.437585
  13 C     6.0000    0    12.011    3.869187    0.592824    4.081105
  14 C     6.0000    0    12.011    0.961962    0.526590    4.167896
  15 C     6.0000    0    12.011   -0.235458    2.412794    2.378044
  16 H     1.0000    0     1.008    5.000711   11.667702    2.577340
  17 H     1.0000    0     1.008    0.709872   12.318731    3.459319
  18 H     1.0000    0     1.008    7.233146    8.243481    4.326397
  19 H     1.0000    0     1.008   -0.257587   10.331018    7.241663
  20 H     1.0000    0     1.008   -0.316937    7.314711    5.779877
  21 H     1.0000    0     1.008    2.795470    5.164839    2.454200
  22 H     1.0000    0     1.008    5.983290    4.864177    1.568672
  23 H     1.0000    0     1.008    5.011956    8.169320   -0.981734
  24 H     1.0000    0     1.008   -1.841770    8.058120    1.864601
  25 H     1.0000    0     1.008    7.018103    2.755643    5.494234
  26 H     1.0000    0     1.008    4.089613    3.584992    6.865082
  27 H     1.0000    0     1.008    4.491463    0.275257    2.134633
  28 H     1.0000    0     1.008    4.571476   -0.975023    5.231433
  29 H     1.0000    0     1.008    0.278143    0.909082    6.077133
  30 H     1.0000    0     1.008    0.335097   -1.359474    3.604494
  31 H     1.0000    0     1.008   -0.033460    3.559752   -1.042533

--------------------------------
INTERNAL COORDINATES (ANGSTROEM)
--------------------------------
 S      0   0   0     0.000000000000     0.00000000     0.00000000
 O      1   0   0     5.342145106955     0.00000000     0.00000000
 O      2   1   0     2.668180981084    77.61164156     0.00000000
 O      3   2   1     2.234088686486    83.28190347    49.85277484
 N      2   1   3     2.312386916411    41.88170766   219.30582055
 N      5   2   1     2.220118563874    61.09992154   311.87686784
 C      5   2   1     1.452196090532   132.30193242   342.88329744
 C      6   5   2     1.456541897362    75.82640296   166.16552102
 C      7   5   2     1.549293134813   113.93562994    81.61302211
 C      8   6   5     1.531244579038   112.77526893   231.96045321
 C      9   7   5     1.535632966620   111.18893009   333.17923722
 C     11   9   7     1.530667306074   115.95793868   201.44551065
 C      2   1   3     1.217852766960    29.25924286   172.93221359
 C     12  11   9     1.535879887449   111.19128996   165.95065807
 C     14  12  11     1.539521301047   113.76190036   284.25228585
 C      4   3   2     1.211248276477    29.43078062   211.53291348
 H      7   5   2     1.095687505982   110.36550073   205.25800356
 H      8   6   5     1.098078061427   109.26129066   109.11929950
 H      9   7   5     1.093252035138   110.61131037    96.12648987
 H     10   8   6     1.089767240995   111.53154685   249.07353468
 H     10   8   6     1.091541622730   110.86227046    10.52415190
 H     11   9   7     1.087462787155   107.27264962   322.29033415
 H     11   9   7     1.095084997268   108.74020581    78.05023514
 H      5   2   1     1.009985461801    91.66630051   115.48187601
 H      6   5   2     1.012356494935   146.44637830    44.61482016
 H     12  11   9     1.094517257259   109.76479068   286.50908214
 H     12  11   9     1.095031069689   109.66266149    44.47151170
 H     14  12  11     1.094364528441   109.80185460    46.68122947
 H     14  12  11     1.094080503174   108.55814575   164.25232869
 H     15  14  12     1.092093729575   110.76236109   305.01648008
 H     15  14  12     1.093185652380   108.41402425   185.80709058
 H      3   2   1     0.996026396315    19.07931289   141.86958909

---------------------------
INTERNAL COORDINATES (A.U.)
---------------------------
 S      0   0   0     0.000000000000     0.00000000     0.00000000
 O      1   0   0    10.095191219812     0.00000000     0.00000000
 O      2   1   0     5.042131329986    77.61164156     0.00000000
 O      3   2   1     4.221815776350    83.28190347    49.85277484
 N      2   1   3     4.369777987680    41.88170766   219.30582055
 N      5   2   1     4.195416070557    61.09992154   311.87686784
 C      5   2   1     2.744252903857   132.30193242   342.88329744
 C      6   5   2     2.752465288597    75.82640296   166.16552102
 C      7   5   2     2.927739725961   113.93562994    81.61302211
 C      8   6   5     2.893632898434   112.77526893   231.96045321
 C      9   7   5     2.901925749133   111.18893009   333.17923722
 C     11   9   7     2.892542010627   115.95793868   201.44551065
 C      2   1   3     2.301408200992    29.25924286   172.93221359
 C     12  11   9     2.902392361877   111.19128996   165.95065807
 C     14  12  11     2.909273636316   113.76190036   284.25228585
 C      4   3   2     2.288927522726    29.43078062   211.53291348
 H      7   5   2     2.070549314665   110.36550073   205.25800356
 H      8   6   5     2.075066809763   109.26129066   109.11929950
 H      9   7   5     2.065946941762   110.61131037    96.12648987
 H     10   8   6     2.059361635200   111.53154685   249.07353468
 H     10   8   6     2.062714730736   110.86227046    10.52415190
 H     11   9   7     2.055006848553   107.27264962   322.29033415
 H     11   9   7     2.069410738202   108.74020581    78.05023514
 H      5   2   1     1.908595922045    91.66630051   115.48187601
 H      6   5   2     1.913076525324   146.44637830    44.61482016
 H     12  11   9     2.068337865071   109.76479068   286.50908214
 H     12  11   9     2.069308829847   109.66266149    44.47151170
 H     14  12  11     2.068049249431   109.80185460    46.68122947
 H     14  12  11     2.067512519461   108.55814575   164.25232869
 H     15  14  12     2.063758061470   110.76236109   305.01648008
 H     15  14  12     2.065821496530   108.41402425   185.80709058
 H      3   2   1     1.882217111192    19.07931289   141.86958909

---------------------
BASIS SET INFORMATION
---------------------
There are 5 groups of distinct atoms

 Group   1 Type S   : 14s9p1d contracted to 5s4p1d pattern {73211/6111/1}
 Group   2 Type O   : 11s6p2d contracted to 5s3p2d pattern {62111/411/11}
 Group   3 Type N   : 11s6p1d contracted to 5s3p1d pattern {62111/411/1}
 Group   4 Type C   : 11s6p1d contracted to 5s3p1d pattern {62111/411/1}
 Group   5 Type H   : 5s contracted to 3s pattern {311}

Atom   0S    basis set group =>   1
Atom   1O    basis set group =>   2
Atom   2O    basis set group =>   2
Atom   3O    basis set group =>   2
Atom   4N    basis set group =>   3
Atom   5N    basis set group =>   3
Atom   6C    basis set group =>   4
Atom   7C    basis set group =>   4
Atom   8C    basis set group =>   4
Atom   9C    basis set group =>   4
Atom  10C    basis set group =>   4
Atom  11C    basis set group =>   4
Atom  12C    basis set group =>   4
Atom  13C    basis set group =>   4
Atom  14C    basis set group =>   4
Atom  15C    basis set group =>   4
Atom  16H    basis set group =>   5
Atom  17H    basis set group =>   5
Atom  18H    basis set group =>   5
Atom  19H    basis set group =>   5
Atom  20H    basis set group =>   5
Atom  21H    basis set group =>   5
Atom  22H    basis set group =>   5
Atom  23H    basis set group =>   5
Atom  24H    basis set group =>   5
Atom  25H    basis set group =>   5
Atom  26H    basis set group =>   5
Atom  27H    basis set group =>   5
Atom  28H    basis set group =>   5
Atom  29H    basis set group =>   5
Atom  30H    basis set group =>   5
Atom  31H    basis set group =>   5
---------------------------------
AUXILIARY/J BASIS SET INFORMATION
---------------------------------
There are 5 groups of distinct atoms

 Group   1 Type S   : 14s5p5d2f1g contracted to 8s4p3d1f1g pattern {71111111/2111/311/2/1}
 Group   2 Type O   : 8s3p3d contracted to 6s3p3d pattern {311111/111/111}
 Group   3 Type N   : 8s3p3d contracted to 6s3p3d pattern {311111/111/111}
 Group   4 Type C   : 8s3p3d contracted to 6s3p3d pattern {311111/111/111}
 Group   5 Type H   : 5s2p contracted to 3s1p pattern {311/2}

Atom   0S    basis set group =>   1
Atom   1O    basis set group =>   2
Atom   2O    basis set group =>   2
Atom   3O    basis set group =>   2
Atom   4N    basis set group =>   3
Atom   5N    basis set group =>   3
Atom   6C    basis set group =>   4
Atom   7C    basis set group =>   4
Atom   8C    basis set group =>   4
Atom   9C    basis set group =>   4
Atom  10C    basis set group =>   4
Atom  11C    basis set group =>   4
Atom  12C    basis set group =>   4
Atom  13C    basis set group =>   4
Atom  14C    basis set group =>   4
Atom  15C    basis set group =>   4
Atom  16H    basis set group =>   5
Atom  17H    basis set group =>   5
Atom  18H    basis set group =>   5
Atom  19H    basis set group =>   5
Atom  20H    basis set group =>   5
Atom  21H    basis set group =>   5
Atom  22H    basis set group =>   5
Atom  23H    basis set group =>   5
Atom  24H    basis set group =>   5
Atom  25H    basis set group =>   5
Atom  26H    basis set group =>   5
Atom  27H    basis set group =>   5
Atom  28H    basis set group =>   5
Atom  29H    basis set group =>   5
Atom  30H    basis set group =>   5
Atom  31H    basis set group =>   5


           ************************************************************
           *        Program running with 16 parallel MPI-processes    *
           *              working on a common directory               *
           ************************************************************
------------------------------------------------------------------------------
                             ORCA STARTUP CALCULATIONS
                           -- RI-GTO INTEGRALS CHOSEN --
------------------------------------------------------------------------------
------------------------------------------------------------------------------
                   ___                                                        
                  /   \      - P O W E R E D   B Y -                         
                 /     \                                                     
                 |  |  |   _    _      __       _____    __    __             
                 |  |  |  | |  | |    /  \     |  _  \  |  |  /  |          
                  \  \/   | |  | |   /    \    | | | |  |  | /  /          
                 / \  \   | |__| |  /  /\  \   | |_| |  |  |/  /          
                |  |  |   |  __  | /  /__\  \  |    /   |      \           
                |  |  |   | |  | | |   __   |  |    \   |  |\   \          
                \     /   | |  | | |  |  |  |  | |\  \  |  | \   \       
                 \___/    |_|  |_| |__|  |__|  |_| \__\ |__|  \__/        
                                                                              
                      - O R C A' S   B I G   F R I E N D -                    
                                      &                                       
                       - I N T E G R A L  F E E D E R -                       
                                                                              
 v1 FN, 2020, v2 2021, v3 2022-2024                                           
------------------------------------------------------------------------------


----------------------
SHARK INTEGRAL PACKAGE
----------------------

Number of atoms                             ...     32
Number of basis functions                   ...    370
Number of shells                            ...    196
Maximum angular momentum                    ...      2
Integral batch strategy                     ... SHARK/LIBINT Hybrid
RI-J (if used) integral strategy            ... SPLIT-RIJ (Revised 2003 algorithm where possible)
Printlevel                                  ...      1
Contraction scheme used                     ... SEGMENTED contraction
Prescreening option                         ... SCHWARTZ
   Thresh                                   ... 2.500e-11
   Tcut                                     ... 2.500e-12
   Tpresel                                  ... 2.500e-12 
Coulomb Range Separation                    ... NOT USED
Exchange Range Separation                   ... NOT USED
Multipole approximations                    ... NOT USED
Finite Nucleus Model                        ... NOT USED
CABS basis                                  ... NOT available
Auxiliary Coulomb fitting basis             ... AVAILABLE
   # of basis functions in Aux-J            ...    597
   # of shells in Aux-J                     ...    261
   Maximum angular momentum in Aux-J        ...      4
Auxiliary J/K fitting basis                 ... NOT available
Auxiliary Correlation fitting basis         ... NOT available
Auxiliary 'external' fitting basis          ... NOT available

Checking pre-screening integrals            ... done (  0.0 sec) Dimension = 196
Check shell pair data                       ... done (  0.0 sec)
Shell pair information
Shell pair cut-off parameter TPreSel        ...   2.5e-12
Total number of shell pairs                 ...     19306
Shell pairs after pre-screening             ...     16645
Total number of primitive shell pairs       ...     71671
Primitive shell pairs kept                  ...     40495
          la=0 lb=0:   6731 shell pairs
          la=1 lb=0:   5648 shell pairs
          la=1 lb=1:   1177 shell pairs
          la=2 lb=0:   2043 shell pairs
          la=2 lb=1:    872 shell pairs
          la=2 lb=2:    174 shell pairs

Calculating one electron integrals          ... done (  0.0 sec)
Calculating RI/J V-Matrix + Cholesky decomp.... done (  0.0 sec)
Calculating Nuclear repulsion               ... done (  0.0 sec) ENN=   1400.307688399192 Eh

Diagonalization of the overlap matrix:
Smallest eigenvalue                        ... 3.132e-05
Time for diagonalization                   ...    0.011 sec
Threshold for overlap eigenvalues          ... 1.000e-07
Number of eigenvalues below threshold      ... 0
Time for construction of square roots      ...    0.006 sec
Total time needed                          ...    0.018 sec

-------------------
DFT GRID GENERATION
-------------------

General Integration Accuracy     IntAcc      ... 4.959
Radial Grid Type                 RadialGrid  ... OptM3 with GC (2021)
Angular Grid (max. ang.)         AngularGrid ... 6 (Lebedev-590)
Angular grid pruning method      GridPruning ... 4 (adaptive)
Weight generation scheme         WeightScheme... mBecke (2022)
Basis function cutoff            BFCut       ... 1.0000e-11
Integration weight cutoff        WCut        ... 1.0000e-14
Partially contracted basis set               ... off
Rotationally invariant grid construction     ... off
Angular grids for H and He will be reduced by one unit
Diffuse basis detected: some atoms will have their outermost
                        angular grid increased by 1.

Total number of grid points                  ...   363711
Total number of batches                      ...     5700
Average number of points per batch           ...       63
Average number of grid points per atom       ...    11366
Initializing property integral containers    ... done (  0.0 sec)

SHARK setup successfully completed in   2.8 seconds

Maximum memory used throughout the entire STARTUP-calculation: 85.9 MB


           ************************************************************
           *        Program running with 16 parallel MPI-processes    *
           *              working on a common directory               *
           ************************************************************
-------------------------------------------------------------------------------
                                 ORCA GUESS
                   Start orbitals & Density for SCF / CASSCF
-------------------------------------------------------------------------------

------------
SCF SETTINGS
------------
Hamiltonian:
 Density Functional     Method          .... DFT(GTOs)
 Exchange Functional    Exchange        .... B973C
 Correlation Functional Correlation     .... B973C
 Gradients option       PostSCFGGA      .... off
 RI-approximation to the Coulomb term is turned on
   Number of AuxJ basis functions       .... 597


General Settings:
 Integral files         IntName         .... m1_00_Vitamin_B7-GFN1_000-B97-3C-TZ
 Hartree-Fock type      HFTyp           .... RHF
 Total Charge           Charge          ....    0
 Multiplicity           Mult            ....    1
 Number of Electrons    NEL             ....  130
 Basis Dimension        Dim             ....  370
 Nuclear Repulsion      ENuc            ....   1400.3076883992 Eh

Convergence Acceleration:
 AO-DIIS                CNVDIIS         .... on
   Start iteration      DIISMaxIt       ....    12
   Startup error        DIISStart       ....  0.200000
   # of expansion vecs  DIISMaxEq       ....     5
   Bias factor          DIISBfac        ....   1.050
   Max. coefficient     DIISMaxC        ....  10.000
 MO-DIIS                CNVKDIIS        .... off
 Trust-Rad. Augm. Hess. CNVTRAH         .... off
 SOSCF                  CNVSOSCF        .... on
   Start iteration      SOSCFMaxIt      ....   150
   Startup grad/error   SOSCFStart      ....  0.003300
   Hessian update       SOSCFHessUp     .... L-BFGS
 Level Shifting         CNVShift        .... on
   Level shift para.    LevelShift      ....    0.2500
   Turn off err/grad.   ShiftErr        ....    0.0010
 Zerner damping         CNVZerner       .... off
 Static damping         CNVDamp         .... on
   Fraction old density DampFac         ....    0.7000
   Max. Damping (<1)    DampMax         ....    0.9800
   Min. Damping (>=0)   DampMin         ....    0.0000
   Turn off err/grad.   DampErr         ....    0.1000

SCF Procedure:
 Maximum # iterations   MaxIter         ....   800
 SCF integral mode      SCFMode         .... Direct
   Integral package                     .... SHARK and LIBINT hybrid scheme
 Reset frequency        DirectResetFreq ....    20
 Integral Threshold     Thresh          ....  2.500e-11 Eh
 Primitive CutOff       TCut            ....  2.500e-12 Eh

Convergence Tolerance:
 Convergence Check Mode ConvCheckMode   .... Total+1el-Energy
 Convergence forced     ConvForced      .... 0
 Energy Change          TolE            ....  1.000e-08 Eh
 1-El. energy change                    ....  1.000e-05 Eh
 Orbital Gradient       TolG            ....  1.000e-05
 Orbital Rotation angle TolX            ....  1.000e-05
 DIIS Error             TolErr          ....  5.000e-07

--------------------------------
INITIAL GUESS: MINIMAL BASIS EHT
--------------------------------
The minimal basis has 100 functions
EHT matrix was diagonalized
Basis set overlap was calculated now projecting the orbitals
Using GuessMode=FMatrix for the initial guess
C*T matrix was formed
Effective Fockian was calculated
Effective Fockian was diagonalized
Initial density was built
                      ------------------
                      INITIAL GUESS DONE
                      ------------------
             **** ENERGY FILE WAS UPDATED (m1_00_Vitamin_B7-GFN1_000-B97-3C-TZ.en.tmp) ****
Finished Guess after   0.2 sec
Maximum memory used throughout the entire GUESS-calculation: 30.1 MB


           ************************************************************
           *        Program running with 16 parallel MPI-processes    *
           *              working on a common directory               *
           ************************************************************

-------------------------------------------------------------------------------------------
                                      ORCA LEAN-SCF
                              memory conserving SCF solver
-------------------------------------------------------------------------------------------

----------------------------------------D-I-I-S--------------------------------------------
Iteration    Energy (Eh)           Delta-E    RMSDP     MaxDP     DIISErr   Damp  Time(sec)
-------------------------------------------------------------------------------------------
               ***  Starting incremental Fock matrix formation  ***
    1    -1120.8838934748569045     0.00e+00  6.57e-03  2.91e-01  8.30e-01  0.700   0.6
    2    -1121.8592005355708352    -9.75e-01  4.83e-03  1.89e-01  5.56e-01  0.700   0.6
    3    -1122.3506064165494536    -4.91e-01  3.03e-03  8.19e-02  3.70e-01  0.700   0.6
    4    -1122.7121026669560706    -3.61e-01  2.14e-03  6.77e-02  2.49e-01  0.700   0.6
                               ***Turning on AO-DIIS***
    5    -1122.9673961608823447    -2.55e-01  1.54e-03  6.26e-02  1.68e-01  0.700   0.6
    6    -1123.1438893435833961    -1.76e-01  1.10e-03  4.00e-02  1.20e-01  0.700   0.6
    7    -1123.2682797526645118    -1.24e-01  8.29e-04  2.69e-02  8.49e-02  0.700   0.6
    8    -1123.3554425248980806    -8.72e-02  1.89e-03  5.71e-02  5.93e-02  0.000   0.6
    9    -1123.5589223121974101    -2.03e-01  2.06e-04  1.04e-02  8.51e-03  0.000   0.6
   10    -1123.5591098802956367    -1.88e-04  5.43e-05  2.46e-03  5.82e-03  0.000   0.6
                              *** Initializing SOSCF ***
---------------------------------------S-O-S-C-F--------------------------------------
Iteration    Energy (Eh)           Delta-E    RMSDP     MaxDP     MaxGrad    Time(sec)
--------------------------------------------------------------------------------------
   11    -1123.5591997872888896    -8.99e-05  3.03e-05  2.21e-03  9.78e-04     0.6
               *** Restarting incremental Fock matrix formation ***
   12    -1123.5592071845953797    -7.40e-06  2.18e-05  8.31e-04  1.63e-04     0.6
   13    -1123.5592048807047831     2.30e-06  1.12e-05  4.00e-04  4.80e-04     0.5
   14    -1123.5592076522066236    -2.77e-06  1.06e-05  6.63e-04  4.42e-05     0.5
   15    -1123.5592075101158116     1.42e-07  4.64e-06  1.47e-04  6.45e-05     0.5
   16    -1123.5592076963130239    -1.86e-07  1.31e-05  1.01e-03  9.28e-06     0.5
   17    -1123.5592076773373265     1.90e-08  2.30e-06  1.35e-04  2.02e-05     0.5
   18    -1123.5592076940656625    -1.67e-08  3.61e-06  2.78e-04  2.64e-06     0.5
   19    -1123.5592077004580460    -6.39e-09  1.29e-06  7.60e-05  4.97e-06     0.5
                 **** Energy Check signals convergence ****

               *****************************************************
               *                     SUCCESS                       *
               *           SCF CONVERGED AFTER  19 CYCLES          *
               *****************************************************

             **** ENERGY FILE WAS UPDATED (m1_00_Vitamin_B7-GFN1_000-B97-3C-TZ.en.tmp) ****

----------------
TOTAL SCF ENERGY
----------------

Total Energy       :      -1123.55920770045805 Eh          -30573.60037 eV

Components:
Nuclear Repulsion  :       1400.30768839919210 Eh           38104.30939 eV
Electronic Energy  :      -2523.86689609965015 Eh          -68677.90976 eV
One Electron Energy:      -4322.75216556214491 Eh         -117628.06652 eV
Two Electron Energy:       1798.88526946249476 Eh           48950.15676 eV

Virial components:
Potential Energy   :      -2243.85494755456148 Eh          -61058.39727 eV
Kinetic Energy     :       1120.29573985410366 Eh           30484.79690 eV
Virial Ratio       :          2.00291304137850

DFT components:
N(Alpha)           :       64.999992119974 electrons
N(Beta)            :       64.999992119974 electrons
N(Total)           :      129.999984239948 electrons
E(XC)              :     -125.112121839258 Eh       

---------------
SCF CONVERGENCE
---------------

  Last Energy change         ...    6.3924e-09  Tolerance :   1.0000e-08
  Last MAX-Density change    ...    7.5955e-05  Tolerance :   1.0000e-07
  Last RMS-Density change    ...    1.2889e-06  Tolerance :   5.0000e-09
  Last DIIS Error            ...    9.7773e-04  Tolerance :   5.0000e-07
  Last Orbital Gradient      ...    4.9660e-06  Tolerance :   1.0000e-05
  Last Orbital Rotation      ...    4.4774e-06  Tolerance :   1.0000e-05


----------------
ORBITAL ENERGIES
----------------

  NO   OCC          E(Eh)            E(eV) 
   0   2.0000     -88.024741     -2395.2750 
   1   2.0000     -18.776766      -510.9418 
   2   2.0000     -18.728585      -509.6307 
   3   2.0000     -18.719492      -509.3833 
   4   2.0000     -14.017432      -381.4337 
   5   2.0000     -14.010810      -381.2535 
   6   2.0000     -10.014235      -272.5012 
   7   2.0000     -10.012388      -272.4509 
   8   2.0000      -9.954832      -270.8848 
   9   2.0000      -9.953746      -270.8552 
  10   2.0000      -9.939795      -270.4756 
  11   2.0000      -9.928591      -270.1707 
  12   2.0000      -9.904328      -269.5105 
  13   2.0000      -9.901353      -269.4295 
  14   2.0000      -9.899110      -269.3685 
  15   2.0000      -9.892360      -269.1848 
  16   2.0000      -7.716205      -209.9686 
  17   2.0000      -5.748039      -156.4121 
  18   2.0000      -5.743273      -156.2824 
  19   2.0000      -5.734377      -156.0403 
  20   2.0000      -1.021056       -27.7844 
  21   2.0000      -0.985528       -26.8176 
  22   2.0000      -0.933772       -25.4092 
  23   2.0000      -0.905694       -24.6452 
  24   2.0000      -0.831179       -22.6175 
  25   2.0000      -0.784480       -21.3468 
  26   2.0000      -0.745014       -20.2729 
  27   2.0000      -0.704515       -19.1708 
  28   2.0000      -0.667548       -18.1649 
  29   2.0000      -0.660171       -17.9642 
  30   2.0000      -0.614402       -16.7187 
  31   2.0000      -0.585553       -15.9337 
  32   2.0000      -0.560037       -15.2394 
  33   2.0000      -0.551033       -14.9944 
  34   2.0000      -0.537519       -14.6266 
  35   2.0000      -0.515572       -14.0294 
  36   2.0000      -0.482237       -13.1223 
  37   2.0000      -0.475140       -12.9292 
  38   2.0000      -0.450396       -12.2559 
  39   2.0000      -0.447584       -12.1794 
  40   2.0000      -0.435502       -11.8506 
  41   2.0000      -0.428006       -11.6466 
  42   2.0000      -0.414332       -11.2745 
  43   2.0000      -0.406012       -11.0482 
  44   2.0000      -0.403524       -10.9804 
  45   2.0000      -0.393339       -10.7033 
  46   2.0000      -0.387778       -10.5520 
  47   2.0000      -0.380529       -10.3547 
  48   2.0000      -0.369866       -10.0646 
  49   2.0000      -0.359946        -9.7946 
  50   2.0000      -0.352864        -9.6019 
  51   2.0000      -0.344965        -9.3870 
  52   2.0000      -0.330721        -8.9994 
  53   2.0000      -0.325052        -8.8451 
  54   2.0000      -0.323885        -8.8134 
  55   2.0000      -0.309133        -8.4119 
  56   2.0000      -0.298446        -8.1211 
  57   2.0000      -0.292698        -7.9647 
  58   2.0000      -0.288256        -7.8438 
  59   2.0000      -0.275979        -7.5098 
  60   2.0000      -0.246894        -6.7183 
  61   2.0000      -0.235738        -6.4148 
  62   2.0000      -0.228276        -6.2117 
  63   2.0000      -0.219386        -5.9698 
  64   2.0000      -0.197513        -5.3746 
  65   0.0000      -0.029283        -0.7968 
  66   0.0000      -0.011546        -0.3142 
  67   0.0000      -0.005484        -0.1492 
  68   0.0000       0.006997         0.1904 
  69   0.0000       0.026116         0.7106 
  70   0.0000       0.031434         0.8554 
  71   0.0000       0.041270         1.1230 
  72   0.0000       0.048749         1.3265 
  73   0.0000       0.061848         1.6830 
  74   0.0000       0.063019         1.7148 
  75   0.0000       0.070158         1.9091 
*Only the first 10 virtual orbitals were printed.

                    ********************************
                    * MULLIKEN POPULATION ANALYSIS *
                    ********************************

-----------------------
MULLIKEN ATOMIC CHARGES
-----------------------
   0 S :   -0.023147
   1 O :   -0.485565
   2 O :   -0.459148
   3 O :   -0.433506
   4 N :   -0.282015
   5 N :   -0.267194
   6 C :   -0.256593
   7 C :   -0.121113
   8 C :    0.020719
   9 C :   -0.358358
  10 C :   -0.573865
  11 C :   -0.312086
  12 C :    0.177251
  13 C :   -0.258041
  14 C :   -0.290551
  15 C :    0.273807
  16 H :    0.197598
  17 H :    0.193251
  18 H :    0.228430
  19 H :    0.198723
  20 H :    0.198691
  21 H :    0.307666
  22 H :    0.168608
  23 H :    0.328795
  24 H :    0.352355
  25 H :    0.167849
  26 H :    0.165781
  27 H :    0.155769
  28 H :    0.186658
  29 H :    0.175017
  30 H :    0.186923
  31 H :    0.437291
Sum of atomic charges:    0.0000000

--------------------------------
MULLIKEN REDUCED ORBITAL CHARGES
--------------------------------
  0 S s       :     5.913972  s :     5.913972
      pz      :     3.226351  p :    10.026390
      px      :     3.001804
      py      :     3.798235
      dz2     :     0.023107  d :     0.082785
      dxz     :     0.026773
      dyz     :     0.009688
      dx2y2   :     0.014298
      dxy     :     0.008919

  1 O s       :     3.847507  s :     3.847507
      pz      :     1.444848  p :     4.608282
      px      :     1.727998
      py      :     1.435436
      dz2     :     0.001392  d :     0.029776
      dxz     :     0.004537
      dyz     :     0.013589
      dx2y2   :     0.003507
      dxy     :     0.006751

  2 O s       :     3.750580  s :     3.750580
      pz      :     1.288772  p :     4.677224
      px      :     1.750560
      py      :     1.637892
      dz2     :     0.001558  d :     0.031344
      dxz     :     0.008746
      dyz     :     0.008280
      dx2y2   :     0.003506
      dxy     :     0.009254

  3 O s       :     3.823094  s :     3.823094
      pz      :     1.752207  p :     4.578934
      px      :     1.395665
      py      :     1.431063
      dz2     :     0.003158  d :     0.031478
      dxz     :     0.005567
      dyz     :     0.008570
      dx2y2   :     0.005092
      dxy     :     0.009091

  4 N s       :     3.378245  s :     3.378245
      pz      :     1.209806  p :     3.861119
      px      :     1.139676
      py      :     1.511637
      dz2     :     0.011472  d :     0.042652
      dxz     :     0.008859
      dyz     :     0.005126
      dx2y2   :     0.005196
      dxy     :     0.011999

  5 N s       :     3.331536  s :     3.331536
      pz      :     1.226063  p :     3.893598
      px      :     1.252899
      py      :     1.414636
      dz2     :     0.008290  d :     0.042060
      dxz     :     0.011812
      dyz     :     0.006426
      dx2y2   :     0.004473
      dxy     :     0.011058

  6 C s       :     3.238589  s :     3.238589
      pz      :     0.832106  p :     2.956505
      px      :     1.032100
      py      :     1.092299
      dz2     :     0.018183  d :     0.061499
      dxz     :     0.008746
      dyz     :     0.013162
      dx2y2   :     0.009644
      dxy     :     0.011764

  7 C s       :     3.129379  s :     3.129379
      pz      :     0.890810  p :     2.930850
      px      :     0.892815
      py      :     1.147225
      dz2     :     0.013991  d :     0.060883
      dxz     :     0.013020
      dyz     :     0.011354
      dx2y2   :     0.015096
      dxy     :     0.007422

  8 C s       :     2.975963  s :     2.975963
      pz      :     0.889031  p :     2.954448
      px      :     1.080086
      py      :     0.985331
      dz2     :     0.009727  d :     0.048870
      dxz     :     0.005934
      dyz     :     0.012394
      dx2y2   :     0.013845
      dxy     :     0.006971

  9 C s       :     3.146443  s :     3.146443
      pz      :     1.016547  p :     3.169643
      px      :     0.978387
      py      :     1.174709
      dz2     :     0.008358  d :     0.042273
      dxz     :     0.008104
      dyz     :     0.008971
      dx2y2   :     0.005168
      dxy     :     0.011673

 10 C s       :     3.214183  s :     3.214183
      pz      :     1.119772  p :     3.315217
      px      :     1.150676
      py      :     1.044769
      dz2     :     0.006666  d :     0.044464
      dxz     :     0.010949
      dyz     :     0.009399
      dx2y2   :     0.013269
      dxy     :     0.004181

 11 C s       :     3.194026  s :     3.194026
      pz      :     1.015585  p :     3.074513
      px      :     1.119159
      py      :     0.939769
      dz2     :     0.008572  d :     0.043547
      dxz     :     0.006802
      dyz     :     0.010449
      dx2y2   :     0.011991
      dxy     :     0.005732

 12 C s       :     3.102423  s :     3.102423
      pz      :     0.909724  p :     2.590274
      px      :     0.879372
      py      :     0.801178
      dz2     :     0.032337  d :     0.130051
      dxz     :     0.030696
      dyz     :     0.015933
      dx2y2   :     0.021242
      dxy     :     0.029843

 13 C s       :     3.145500  s :     3.145500
      pz      :     1.087913  p :     3.068799
      px      :     0.951180
      py      :     1.029706
      dz2     :     0.009615  d :     0.043743
      dxz     :     0.006339
      dyz     :     0.008665
      dx2y2   :     0.010791
      dxy     :     0.008333

 14 C s       :     3.131995  s :     3.131995
      pz      :     1.064242  p :     3.116411
      px      :     0.988078
      py      :     1.064091
      dz2     :     0.009098  d :     0.042144
      dxz     :     0.008777
      dyz     :     0.007382
      dx2y2   :     0.008929
      dxy     :     0.007958

 15 C s       :     3.171576  s :     3.171576
      pz      :     0.789142  p :     2.430978
      px      :     0.813230
      py      :     0.828606
      dz2     :     0.030133  d :     0.123638
      dxz     :     0.028677
      dyz     :     0.030998
      dx2y2   :     0.020041
      dxy     :     0.013789

 16 H s       :     0.802402  s :     0.802402

 17 H s       :     0.806749  s :     0.806749

 18 H s       :     0.771570  s :     0.771570

 19 H s       :     0.801277  s :     0.801277

 20 H s       :     0.801309  s :     0.801309

 21 H s       :     0.692334  s :     0.692334

 22 H s       :     0.831392  s :     0.831392

 23 H s       :     0.671205  s :     0.671205

 24 H s       :     0.647645  s :     0.647645

 25 H s       :     0.832151  s :     0.832151

 26 H s       :     0.834219  s :     0.834219

 27 H s       :     0.844231  s :     0.844231

 28 H s       :     0.813342  s :     0.813342

 29 H s       :     0.824983  s :     0.824983

 30 H s       :     0.813077  s :     0.813077

 31 H s       :     0.562709  s :     0.562709



                     *******************************
                     * LOEWDIN POPULATION ANALYSIS *
                     *******************************

----------------------
LOEWDIN ATOMIC CHARGES
----------------------
   0 S :    0.385249
   1 O :   -0.566611
   2 O :   -0.545702
   3 O :   -0.513556
   4 N :   -0.230481
   5 N :   -0.214635
   6 C :   -0.113880
   7 C :   -0.105922
   8 C :   -0.344261
   9 C :   -0.442339
  10 C :   -0.303750
  11 C :   -0.305754
  12 C :    0.260729
  13 C :   -0.274569
  14 C :   -0.222501
  15 C :    0.337613
  16 H :    0.164887
  17 H :    0.163080
  18 H :    0.164981
  19 H :    0.163049
  20 H :    0.182807
  21 H :    0.189131
  22 H :    0.159863
  23 H :    0.292399
  24 H :    0.315656
  25 H :    0.155953
  26 H :    0.158724
  27 H :    0.169727
  28 H :    0.156725
  29 H :    0.177608
  30 H :    0.185346
  31 H :    0.400435

-------------------------------
LOEWDIN REDUCED ORBITAL CHARGES
-------------------------------
  0 S s       :     5.422331  s :     5.422331
      pz      :     3.278246  p :    10.094117
      px      :     3.052900
      py      :     3.762971
      dz2     :     0.026725  d :     0.098303
      dxz     :     0.032197
      dyz     :     0.010319
      dx2y2   :     0.018085
      dxy     :     0.010977

  1 O s       :     3.531959  s :     3.531959
      pz      :     1.530961  p :     4.733585
      px      :     1.724095
      py      :     1.478529
      dz2     :     0.064548  d :     0.301067
      dxz     :     0.051558
      dyz     :     0.082221
      dx2y2   :     0.051754
      dxy     :     0.050987

  2 O s       :     3.499566  s :     3.499566
      pz      :     1.391684  p :     4.713793
      px      :     1.711751
      py      :     1.610359
      dz2     :     0.088462  d :     0.332343
      dxz     :     0.065017
      dyz     :     0.098060
      dx2y2   :     0.044137
      dxy     :     0.036666

  3 O s       :     3.529755  s :     3.529755
      pz      :     1.719239  p :     4.675207
      px      :     1.458353
      py      :     1.497615
      dz2     :     0.048970  d :     0.308593
      dxz     :     0.044556
      dyz     :     0.068351
      dx2y2   :     0.067448
      dxy     :     0.079268

  4 N s       :     3.148002  s :     3.148002
      pz      :     1.293946  p :     4.005985
      px      :     1.195020
      py      :     1.517019
      dz2     :     0.021681  d :     0.076495
      dxz     :     0.016575
      dyz     :     0.009026
      dx2y2   :     0.009672
      dxy     :     0.019541

  5 N s       :     3.140269  s :     3.140269
      pz      :     1.261643  p :     3.998853
      px      :     1.288481
      py      :     1.448728
      dz2     :     0.014689  d :     0.075513
      dxz     :     0.023074
      dyz     :     0.013129
      dx2y2   :     0.007704
      dxy     :     0.016916

  6 C s       :     2.893724  s :     2.893724
      pz      :     0.946842  p :     3.100065
      px      :     1.067470
      py      :     1.085752
      dz2     :     0.036697  d :     0.120091
      dxz     :     0.017981
      dyz     :     0.027057
      dx2y2   :     0.017366
      dxy     :     0.020990

  7 C s       :     2.886999  s :     2.886999
      pz      :     0.998300  p :     3.100781
      px      :     1.010617
      py      :     1.091865
      dz2     :     0.028399  d :     0.118141
      dxz     :     0.025751
      dyz     :     0.022310
      dx2y2   :     0.028228
      dxy     :     0.013454

  8 C s       :     2.971388  s :     2.971388
      pz      :     1.064338  p :     3.278093
      px      :     1.115370
      py      :     1.098385
      dz2     :     0.019709  d :     0.094780
      dxz     :     0.012358
      dyz     :     0.025842
      dx2y2   :     0.024495
      dxy     :     0.012375

  9 C s       :     3.014386  s :     3.014386
      pz      :     1.085966  p :     3.351145
      px      :     1.096598
      py      :     1.168581
      dz2     :     0.015642  d :     0.076808
      dxz     :     0.015877
      dyz     :     0.015983
      dx2y2   :     0.010173
      dxy     :     0.019134

 10 C s       :     2.935268  s :     2.935268
      pz      :     1.112929  p :     3.288292
      px      :     1.118089
      py      :     1.057274
      dz2     :     0.011572  d :     0.080190
      dxz     :     0.017366
      dyz     :     0.019135
      dx2y2   :     0.024414
      dxy     :     0.007704

 11 C s       :     2.939365  s :     2.939365
      pz      :     1.109089  p :     3.288533
      px      :     1.115435
      py      :     1.064009
      dz2     :     0.014524  d :     0.077856
      dxz     :     0.011185
      dyz     :     0.020583
      dx2y2   :     0.020999
      dxy     :     0.010564

 12 C s       :     2.744349  s :     2.744349
      pz      :     0.914741  p :     2.709747
      px      :     0.928236
      py      :     0.866769
      dz2     :     0.066806  d :     0.285175
      dxz     :     0.066746
      dyz     :     0.041498
      dx2y2   :     0.044712
      dxy     :     0.065412

 13 C s       :     2.936560  s :     2.936560
      pz      :     1.124901  p :     3.259815
      px      :     1.045079
      py      :     1.089835
      dz2     :     0.016079  d :     0.078195
      dxz     :     0.010999
      dyz     :     0.014665
      dx2y2   :     0.020863
      dxy     :     0.015588

 14 C s       :     2.924103  s :     2.924103
      pz      :     1.083401  p :     3.225593
      px      :     1.063268
      py      :     1.078925
      dz2     :     0.016135  d :     0.072804
      dxz     :     0.014432
      dyz     :     0.012163
      dx2y2   :     0.016640
      dxy     :     0.013436

 15 C s       :     2.749422  s :     2.749422
      pz      :     0.912460  p :     2.639115
      px      :     0.827414
      py      :     0.899241
      dz2     :     0.069607  d :     0.273850
      dxz     :     0.063355
      dyz     :     0.068195
      dx2y2   :     0.036747
      dxy     :     0.035947

 16 H s       :     0.835113  s :     0.835113

 17 H s       :     0.836920  s :     0.836920

 18 H s       :     0.835019  s :     0.835019

 19 H s       :     0.836951  s :     0.836951

 20 H s       :     0.817193  s :     0.817193

 21 H s       :     0.810869  s :     0.810869

 22 H s       :     0.840137  s :     0.840137

 23 H s       :     0.707601  s :     0.707601

 24 H s       :     0.684344  s :     0.684344

 25 H s       :     0.844047  s :     0.844047

 26 H s       :     0.841276  s :     0.841276

 27 H s       :     0.830273  s :     0.830273

 28 H s       :     0.843275  s :     0.843275

 29 H s       :     0.822392  s :     0.822392

 30 H s       :     0.814654  s :     0.814654

 31 H s       :     0.599565  s :     0.599565



                      *****************************
                      * MAYER POPULATION ANALYSIS *
                      *****************************

  NA   - Mulliken gross atomic population
  ZA   - Total nuclear charge
  QA   - Mulliken gross atomic charge
  VA   - Mayer's total valence
  BVA  - Mayer's bonded valence
  FA   - Mayer's free valence

  ATOM       NA         ZA         QA         VA         BVA        FA
  0 S     16.0231    16.0000    -0.0231     2.1369     2.1369     0.0000
  1 O      8.4856     8.0000    -0.4856     1.9750     1.9750     0.0000
  2 O      8.4591     8.0000    -0.4591     1.8352     1.8352     0.0000
  3 O      8.4335     8.0000    -0.4335     2.0039     2.0039     0.0000
  4 N      7.2820     7.0000    -0.2820     2.8305     2.8305    -0.0000
  5 N      7.2672     7.0000    -0.2672     2.9722     2.9722     0.0000
  6 C      6.2566     6.0000    -0.2566     3.8833     3.8833    -0.0000
  7 C      6.1211     6.0000    -0.1211     3.8572     3.8572    -0.0000
  8 C      5.9793     6.0000     0.0207     3.3976     3.3976    -0.0000
  9 C      6.3584     6.0000    -0.3584     3.7535     3.7535     0.0000
 10 C      6.5739     6.0000    -0.5739     4.0902     4.0902     0.0000
 11 C      6.3121     6.0000    -0.3121     3.6699     3.6699     0.0000
 12 C      5.8227     6.0000     0.1773     4.3121     4.3121     0.0000
 13 C      6.2580     6.0000    -0.2580     3.6733     3.6733     0.0000
 14 C      6.2906     6.0000    -0.2906     3.7283     3.7283     0.0000
 15 C      5.7262     6.0000     0.2738     4.0064     4.0064     0.0000
 16 H      0.8024     1.0000     0.1976     0.9502     0.9502    -0.0000
 17 H      0.8067     1.0000     0.1933     0.9445     0.9445     0.0000
 18 H      0.7716     1.0000     0.2284     0.9113     0.9113    -0.0000
 19 H      0.8013     1.0000     0.1987     0.9362     0.9362     0.0000
 20 H      0.8013     1.0000     0.1987     0.9910     0.9910     0.0000
 21 H      0.6923     1.0000     0.3077     0.7124     0.7124     0.0000
 22 H      0.8314     1.0000     0.1686     0.9636     0.9636    -0.0000
 23 H      0.6712     1.0000     0.3288     0.8771     0.8771    -0.0000
 24 H      0.6476     1.0000     0.3524     0.8828     0.8828    -0.0000
 25 H      0.8322     1.0000     0.1678     0.9456     0.9456     0.0000
 26 H      0.8342     1.0000     0.1658     0.9896     0.9896     0.0000
 27 H      0.8442     1.0000     0.1558     0.9723     0.9723     0.0000
 28 H      0.8133     1.0000     0.1867     0.9367     0.9367    -0.0000
 29 H      0.8250     1.0000     0.1750     0.9629     0.9629     0.0000
 30 H      0.8131     1.0000     0.1869     0.9456     0.9456     0.0000
 31 H      0.5627     1.0000     0.4373     0.8181     0.8181     0.0000

  Mayer bond orders larger than 0.100000
B(  0-S ,  8-C ) :   0.9486 B(  0-S ,  9-C ) :   1.0009 B(  1-O , 12-C ) :   1.8236 
B(  1-O , 31-H ) :   0.1462 B(  2-O , 15-C ) :   1.1636 B(  2-O , 31-H ) :   0.6495 
B(  3-O , 15-C ) :   1.8569 B(  4-N ,  6-C ) :   0.9555 B(  4-N ,  8-C ) :  -0.1022 
B(  4-N , 12-C ) :   1.1253 B(  4-N , 23-H ) :   0.8441 B(  5-N ,  7-C ) :   1.0245 
B(  5-N , 12-C ) :   1.1958 B(  5-N , 24-H ) :   0.7959 B(  6-C ,  7-C ) :   1.0132 
B(  6-C ,  8-C ) :   0.8782 B(  6-C , 16-H ) :   0.9279 B(  7-C ,  9-C ) :   0.9686 
B(  7-C , 17-H ) :   0.8674 B(  8-C , 10-C ) :   0.8948 B(  8-C , 18-H ) :   0.8956 
B(  9-C , 19-H ) :   0.9117 B(  9-C , 20-H ) :   0.9409 B( 10-C , 11-C ) :   0.9731 
B( 10-C , 12-C ) :   0.1133 B( 10-C , 21-H ) :   0.9803 B( 10-C , 22-H ) :   0.8711 
B( 11-C , 13-C ) :   0.9122 B( 11-C , 25-H ) :   0.9300 B( 11-C , 26-H ) :   0.9599 
B( 13-C , 14-C ) :   0.9335 B( 13-C , 27-H ) :   0.9493 B( 13-C , 28-H ) :   0.9448 
B( 14-C , 15-C ) :   0.9638 B( 14-C , 29-H ) :   0.9720 B( 14-C , 30-H ) :   0.9172 



------------------
HIRSHFELD ANALYSIS
------------------

Total integrated alpha density =     64.999992120
Total integrated beta density  =     64.999992120

  ATOM     CHARGE      SPIN    
   0 S   -0.059070    0.000000
   1 O   -0.296728    0.000000
   2 O   -0.174429    0.000000
   3 O   -0.276004    0.000000
   4 N   -0.133043    0.000000
   5 N   -0.128991    0.000000
   6 C    0.037333    0.000000
   7 C    0.043784    0.000000
   8 C   -0.009490    0.000000
   9 C   -0.038608    0.000000
  10 C   -0.053431    0.000000
  11 C   -0.048170    0.000000
  12 C    0.199131    0.000000
  13 C   -0.037933    0.000000
  14 C   -0.042265    0.000000
  15 C    0.214555    0.000000
  16 H    0.036175    0.000000
  17 H    0.036396    0.000000
  18 H    0.036686    0.000000
  19 H    0.042682    0.000000
  20 H    0.031345    0.000000
  21 H    0.012333    0.000000
  22 H    0.027700    0.000000
  23 H    0.134034    0.000000
  24 H    0.125710    0.000000
  25 H    0.025576    0.000000
  26 H    0.017035    0.000000
  27 H    0.027066    0.000000
  28 H    0.029748    0.000000
  29 H    0.038379    0.000000
  30 H    0.044017    0.000000
  31 H    0.138492    0.000000

  TOTAL   0.000016    0.000000

-------
TIMINGS
-------

Total SCF time: 0 days 0 hours 0 min 11 sec 

Total time                  ....      11.895 sec
Sum of individual times     ....      11.748 sec  ( 98.8%)

SCF preparation             ....       0.227 sec  (  1.9%)
Fock matrix formation       ....       9.769 sec  ( 82.1%)
  Startup                   ....       0.024 sec  (  0.2% of F)
  Split-RI-J                ....       1.765 sec  ( 18.1% of F)
  XC integration            ....       7.600 sec  ( 77.8% of F)
    XC Preparation          ....       0.000 sec  (  0.0% of XC)
    Basis function eval.    ....       1.656 sec  ( 21.8% of XC)
    Density eval.           ....       1.912 sec  ( 25.2% of XC)
    XC-Functional eval.     ....       0.156 sec  (  2.0% of XC)
    XC-Potential eval.      ....       1.489 sec  ( 19.6% of XC)
Diagonalization             ....       0.000 sec  (  0.0%)
Density matrix formation    ....       0.103 sec  (  0.9%)
Total Energy calculation    ....       0.040 sec  (  0.3%)
Population analysis         ....       0.850 sec  (  7.1%)
Orbital Transformation      ....       0.061 sec  (  0.5%)
Orbital Orthonormalization  ....       0.000 sec  (  0.0%)
DIIS solution               ....       0.483 sec  (  4.1%)
[...]
 25:    537.30   0.011048   55.83  0.006417  (-0.074347  0.026206  0.014224)
 26:    557.05   0.035151  177.64  0.019692  (-0.011983 -0.122172  0.067985)
 27:    573.61   0.000982    4.96  0.000534  ( 0.004787  0.010914  0.019803)
 28:    614.11   0.006551   33.11  0.003329  ( 0.054896  0.002464 -0.017592)
 29:    666.01   0.002227   11.25  0.001043  ( 0.000956 -0.016740  0.027610)
 30:    677.35   0.001705    8.61  0.000785  (-0.010566 -0.025193  0.006248)
 31:    722.97   0.000437    2.21  0.000189  (-0.007734 -0.010735  0.003699)
 32:    723.79   0.015468   78.17  0.006669  (-0.004568  0.064903 -0.049355)
 33:    754.48   0.027188  137.40  0.011245  (-0.042134 -0.095204 -0.020151)
 34:    771.08   0.005001   25.27  0.002024  ( 0.027785  0.023879  0.026110)
 35:    786.32   0.001800    9.10  0.000715  ( 0.015340  0.000647  0.021882)
 36:    798.62   0.000858    4.33  0.000335  (-0.014117 -0.010712 -0.004587)
 37:    815.71   0.019312   97.59  0.007388  ( 0.068637  0.029568  0.042459)
 38:    827.54   0.001843    9.31  0.000695  (-0.006650  0.009517  0.023669)
 39:    885.22   0.001362    6.88  0.000480  (-0.013431 -0.015355 -0.007993)
 40:    914.42   0.002324   11.75  0.000793  ( 0.018747  0.020977  0.001312)
 41:    922.90   0.000247    1.25  0.000083  ( 0.000421 -0.004866 -0.007714)
 42:    934.11   0.000508    2.57  0.000170  ( 0.008666 -0.009677  0.000976)
 43:    983.40   0.000554    2.80  0.000176  (-0.010817  0.007604  0.000957)
 44:    995.09   0.000956    4.83  0.000300  ( 0.007940 -0.005596  0.014330)
 45:   1037.63   0.001627    8.22  0.000489  ( 0.004011 -0.010055  0.019290)
 46:   1049.83   0.004355   22.01  0.001295  ( 0.009224 -0.001873 -0.034727)
 47:   1065.96   0.007048   35.62  0.002063  (-0.017817  0.000625 -0.041778)
 48:   1073.75   0.001596    8.07  0.000464  ( 0.000965 -0.002120  0.021414)
 49:   1087.49   0.001048    5.30  0.000301  (-0.016140 -0.006175  0.001437)
 50:   1099.40   0.001014    5.12  0.000288  (-0.001032 -0.015199  0.007464)
 51:   1117.92   0.005025   25.40  0.001403  (-0.010569 -0.015669 -0.032335)
 52:   1153.78   0.003144   15.89  0.000850  ( 0.008748  0.004252 -0.027489)
 53:   1168.71   0.000678    3.43  0.000181  (-0.007158  0.010327  0.004807)
 54:   1202.18   0.001754    8.86  0.000455  ( 0.004013  0.003647  0.020637)
 55:   1224.06   0.003592   18.15  0.000916  ( 0.003231 -0.004280  0.029784)
 56:   1236.70   0.009105   46.01  0.002298  ( 0.000884  0.000328 -0.047924)
 57:   1259.94   0.005410   27.34  0.001340  (-0.035223  0.001951 -0.009774)
 58:   1267.88   0.009577   48.40  0.002357  ( 0.023657  0.004617 -0.042146)
 59:   1275.06   0.006420   32.44  0.001571  ( 0.022794 -0.009553  0.030991)
 60:   1296.71   0.002836   14.33  0.000682  (-0.013750  0.000343  0.022209)
 61:   1310.10   0.001212    6.13  0.000289  (-0.013925  0.005773  0.007843)
 62:   1333.19   0.001048    5.30  0.000245  (-0.014875 -0.000393  0.004890)
 63:   1349.23   0.000319    1.61  0.000074  (-0.001820 -0.000052  0.008394)
 64:   1355.30   0.001150    5.81  0.000265  (-0.003957 -0.003156 -0.015464)
 65:   1364.90   0.001454    7.35  0.000332  ( 0.001019  0.001589  0.018135)
 66:   1369.87   0.000116    0.59  0.000027  (-0.002474  0.003222  0.003167)
 67:   1373.73   0.000777    3.93  0.000177  (-0.002556 -0.012132 -0.004783)
 68:   1391.75   0.001517    7.66  0.000340  ( 0.014287 -0.011476  0.002059)
 69:   1412.70   0.008036   40.61  0.001775  (-0.029391 -0.020022  0.022593)
 70:   1416.66   0.005696   28.78  0.001255  (-0.034049  0.003668  0.009046)
 71:   1420.36   0.001972    9.97  0.000433  (-0.017862 -0.010113 -0.003457)
 72:   1430.27   0.000252    1.27  0.000055  ( 0.005989 -0.004037  0.001692)
 73:   1472.50   0.002125   10.74  0.000450  (-0.009816 -0.012293  0.014244)
 74:   1476.15   0.000569    2.88  0.000120  (-0.010603  0.001383  0.002448)
 75:   1494.97   0.001175    5.94  0.000245  (-0.006076  0.014060  0.003278)
 76:   1502.28   0.001770    8.95  0.000368  ( 0.004806 -0.002360 -0.018413)
 77:   1506.90   0.000630    3.18  0.000130  (-0.010220  0.004945 -0.001241)
 78:   1723.76   0.033140  167.48  0.006000  ( 0.072574 -0.002690  0.026933)
 79:   1750.91   0.126278  638.16  0.022506  ( 0.004268  0.104409  0.107643)
 80:   2985.44   0.004246   21.46  0.000444  (-0.016309 -0.004373 -0.012599)
 81:   2999.64   0.003330   16.83  0.000346  ( 0.004886 -0.007121 -0.016487)
 82:   3000.93   0.007984   40.35  0.000830  (-0.021146  0.016597 -0.010376)
 83:   3010.72   0.008053   40.69  0.000835  ( 0.006780 -0.027829 -0.003776)
 84:   3012.13   0.004159   21.02  0.000431  (-0.005238 -0.019950  0.002339)
 85:   3029.93   0.001278    6.46  0.000132  (-0.008908 -0.005422  0.004788)
 86:   3031.54   0.007573   38.27  0.000780  (-0.023985  0.014167  0.001894)
 87:   3041.94   0.002415   12.20  0.000248  ( 0.012997  0.000529 -0.008862)
 88:   3046.31   0.005458   27.58  0.000559  (-0.009036 -0.007817  0.020405)
 89:   3062.89   0.008463   42.77  0.000862  (-0.016811 -0.023645 -0.004534)
 90:   3080.02   0.004703   23.77  0.000477  ( 0.006908 -0.002741 -0.020526)
 91:   3101.72   0.002476   12.51  0.000249  ( 0.007323 -0.011315 -0.008210)
 92:   3144.29   0.002069   10.45  0.000205  ( 0.013586 -0.004275  0.001560)
 93:   3349.14   0.083664  422.81  0.007796  ( 0.006535  0.079720 -0.037385)
 94:   3554.51   0.015974   80.72  0.001402  (-0.025427 -0.025006  0.011427)
 95:   3587.44   0.004026   20.34  0.000350  (-0.015428  0.004614  0.009533)

* The epsilon (eps) is given for a Dirac delta lineshape.
** The dipole moment derivative (T) already includes vibrational overlap.

The first frequency considered to be a vibration is 6
The total number of vibrations considered is 90


--------------------------
THERMOCHEMISTRY AT 298.15K
--------------------------

Temperature         ...   298.15 K
Pressure            ...     1.00 atm
Total Mass          ...   244.31 AMU
Quasi RRHO          ...     True
Cut-Off Frequency   ...     1.00 cm^-1

Throughout the following assumptions are being made:
  (1) The electronic state is orbitally nondegenerate
  (2) There are no thermally accessible electronically excited states
  (3) Hindered rotations indicated by low frequency modes are not
      treated as such but are treated as vibrations and this may
      cause some error
  (4) All equations used are the standard statistical mechanics
      equations for an ideal gas
  (5) All vibrations are strictly harmonic

freq.      65.72  E(vib)   ...       0.50 
freq.      79.69  E(vib)   ...       0.49 
freq.      86.80  E(vib)   ...       0.48 
freq.      99.56  E(vib)   ...       0.46 
freq.     125.35  E(vib)   ...       0.43 
freq.     136.54  E(vib)   ...       0.42 
freq.     152.67  E(vib)   ...       0.40 
freq.     178.48  E(vib)   ...       0.37 
freq.     189.56  E(vib)   ...       0.36 
freq.     238.25  E(vib)   ...       0.32 
freq.     266.88  E(vib)   ...       0.29 
freq.     316.17  E(vib)   ...       0.25 
freq.     346.58  E(vib)   ...       0.23 
freq.     364.56  E(vib)   ...       0.22 
freq.     414.45  E(vib)   ...       0.19 
freq.     440.83  E(vib)   ...       0.17 
freq.     443.67  E(vib)   ...       0.17 
freq.     490.74  E(vib)   ...       0.14 
freq.     519.09  E(vib)   ...       0.13 
freq.     537.30  E(vib)   ...       0.12 
freq.     557.05  E(vib)   ...       0.12 
freq.     573.61  E(vib)   ...       0.11 
freq.     614.11  E(vib)   ...       0.10 
freq.     666.01  E(vib)   ...       0.08 
freq.     677.35  E(vib)   ...       0.08 
freq.     722.97  E(vib)   ...       0.07 
freq.     723.79  E(vib)   ...       0.06 
freq.     754.48  E(vib)   ...       0.06 
freq.     771.08  E(vib)   ...       0.05 
freq.     786.32  E(vib)   ...       0.05 
freq.     798.62  E(vib)   ...       0.05 
freq.     815.71  E(vib)   ...       0.05 
freq.     827.54  E(vib)   ...       0.04 
freq.     885.22  E(vib)   ...       0.04 
freq.     914.42  E(vib)   ...       0.03 
freq.     922.90  E(vib)   ...       0.03 
freq.     934.11  E(vib)   ...       0.03 
freq.     983.40  E(vib)   ...       0.02 
freq.     995.09  E(vib)   ...       0.02 
freq.    1037.63  E(vib)   ...       0.02 
freq.    1049.83  E(vib)   ...       0.02 
freq.    1065.96  E(vib)   ...       0.02 
freq.    1073.75  E(vib)   ...       0.02 
freq.    1087.49  E(vib)   ...       0.02 
freq.    1099.40  E(vib)   ...       0.02 
freq.    1117.92  E(vib)   ...       0.01 
freq.    1153.78  E(vib)   ...       0.01 
freq.    1168.71  E(vib)   ...       0.01 
freq.    1202.18  E(vib)   ...       0.01 
freq.    1224.06  E(vib)   ...       0.01 
freq.    1236.70  E(vib)   ...       0.01 
freq.    1259.94  E(vib)   ...       0.01 
freq.    1267.88  E(vib)   ...       0.01 
freq.    1275.06  E(vib)   ...       0.01 
freq.    1296.71  E(vib)   ...       0.01 
freq.    1310.10  E(vib)   ...       0.01 
freq.    1333.19  E(vib)   ...       0.01 
freq.    1349.23  E(vib)   ...       0.01 
freq.    1355.30  E(vib)   ...       0.01 
freq.    1364.90  E(vib)   ...       0.01 
freq.    1369.87  E(vib)   ...       0.01 
freq.    1373.73  E(vib)   ...       0.01 
freq.    1391.75  E(vib)   ...       0.00 
freq.    1412.70  E(vib)   ...       0.00 
freq.    1416.66  E(vib)   ...       0.00 
freq.    1420.36  E(vib)   ...       0.00 
freq.    1430.27  E(vib)   ...       0.00 
freq.    1472.50  E(vib)   ...       0.00 
freq.    1476.15  E(vib)   ...       0.00 
freq.    1494.97  E(vib)   ...       0.00 
freq.    1502.28  E(vib)   ...       0.00 
freq.    1506.90  E(vib)   ...       0.00 
freq.    1723.76  E(vib)   ...       0.00 
freq.    1750.91  E(vib)   ...       0.00 
freq.    2985.44  E(vib)   ...       0.00 
freq.    2999.64  E(vib)   ...       0.00 
freq.    3000.93  E(vib)   ...       0.00 
freq.    3010.72  E(vib)   ...       0.00 
freq.    3012.13  E(vib)   ...       0.00 
freq.    3029.93  E(vib)   ...       0.00 
freq.    3031.54  E(vib)   ...       0.00 
freq.    3041.94  E(vib)   ...       0.00 
freq.    3046.31  E(vib)   ...       0.00 
freq.    3062.89  E(vib)   ...       0.00 
freq.    3080.02  E(vib)   ...       0.00 
freq.    3101.72  E(vib)   ...       0.00 
freq.    3144.29  E(vib)   ...       0.00 
freq.    3349.14  E(vib)   ...       0.00 
freq.    3554.51  E(vib)   ...       0.00 
freq.    3587.44  E(vib)   ...       0.00 

------------
INNER ENERGY
------------

The inner energy is: U= E(el) + E(ZPE) + E(vib) + E(rot) + E(trans)
    E(el)   - is the total energy from the electronic structure calculation
              = E(kin-el) + E(nuc-el) + E(el-el) + E(nuc-nuc)
    E(ZPE)  - the the zero temperature vibrational energy from the frequency calculation
    E(vib)  - the the finite temperature correction to E(ZPE) due to population
              of excited vibrational states
    E(rot)  - is the rotational thermal energy
    E(trans)- is the translational thermal energy

Summary of contributions to the inner energy U:
Electronic energy                ...  -1123.74957660 Eh
Zero point energy                ...      0.26546986 Eh     166.58 kcal/mol
Thermal vibrational correction   ...      0.01198454 Eh       7.52 kcal/mol
Thermal rotational correction    ...      0.00141627 Eh       0.89 kcal/mol
Thermal translational correction ...      0.00141627 Eh       0.89 kcal/mol
-----------------------------------------------------------------------
Total thermal energy                  -1123.46928966 Eh


Summary of corrections to the electronic energy:
(perhaps to be used in another calculation)
Total thermal correction                  0.01481708 Eh       9.30 kcal/mol
Non-thermal (ZPE) correction              0.26546986 Eh     166.58 kcal/mol
-----------------------------------------------------------------------
Total correction                          0.28028694 Eh     175.88 kcal/mol


--------
ENTHALPY
--------

The enthalpy is H = U + kB*T
                kB is Boltzmann's constant
Total thermal energy              ...  -1123.46928966 Eh 
Thermal Enthalpy correction       ...      0.00094421 Eh       0.59 kcal/mol
-----------------------------------------------------------------------
Total Enthalpy                    ...  -1123.46834545 Eh


Note: Only C1 symmetry has been detected, increase convergence thresholds 
      if your molecule has a higher symmetry. Symmetry factor of 1.0 is   
      used for the rotational entropy correction. 
 

Note: Rotational entropy computed according to Herzberg 
Infrared and Raman Spectra, Chapter V,1, Van Nostrand Reinhold, 1945 
Point Group:  C1, Symmetry Number:   1  
Rotational constants in cm-1:     0.020920     0.015998     0.011930 

Vibrational entropy computed according to the QRRHO of S. Grimme
Chem.Eur.J. 2012 18 9955 using a reference frequency of 100.0 cm-1


-------
ENTROPY
-------

The entropy contributions are T*S = T*(S(el)+S(vib)+S(rot)+S(trans))
     S(el)   - electronic entropy
     S(vib)  - vibrational entropy
     S(rot)  - rotational entropy
     S(trans)- translational entropy
The entropies will be listed as multiplied by the temperature to get
units of energy

Electronic entropy                ...      0.00000000 Eh      0.00 kcal/mol
Vibrational entropy               ...      0.02060147 Eh     12.93 kcal/mol
Rotational entropy                ...      0.01537938 Eh      9.65 kcal/mol
Translational entropy             ...      0.02013635 Eh     12.64 kcal/mol
-----------------------------------------------------------------------
Final entropy term                ...      0.05611720 Eh     35.21 kcal/mol

In case the symmetry of your molecule has not been determined correctly
or in case you have a reason to use a different symmetry number we print 
out the resulting rotational entropy values for sn=1,12:

 non-linear molecules -----------------------------------
|  sn= 1 | S(rot)=       0.01537938 Eh      9.65 kcal/mol|
|  sn= 2 | S(rot)=       0.01472492 Eh      9.24 kcal/mol|
|  sn= 3 | S(rot)=       0.01434209 Eh      9.00 kcal/mol|
|  sn= 4 | S(rot)=       0.01407047 Eh      8.83 kcal/mol|
|  sn= 5 | S(rot)=       0.01385978 Eh      8.70 kcal/mol|
|  sn= 6 | S(rot)=       0.01368764 Eh      8.59 kcal/mol|
|  sn= 7 | S(rot)=       0.01354209 Eh      8.50 kcal/mol|
|  sn= 8 | S(rot)=       0.01341601 Eh      8.42 kcal/mol|
|  sn= 9 | S(rot)=       0.01330480 Eh      8.35 kcal/mol|
|  sn=10 | S(rot)=       0.01320532 Eh      8.29 kcal/mol|
|  sn=11 | S(rot)=       0.01311533 Eh      8.23 kcal/mol|
|  sn=12 | S(rot)=       0.01303318 Eh      8.18 kcal/mol|
 linear molecules ---------------------------------------
|  Dinfh | S(rot)=       0.00950727 Eh      5.97 kcal/mol|
|  Cinfv | S(rot)=       0.01016172 Eh      6.38 kcal/mol|
 --------------------------------------------------------


-------------------
GIBBS FREE ENERGY
-------------------

The Gibbs free energy is G = H - T*S

Total enthalpy                    ...  -1123.46834545 Eh 
Total entropy correction          ...     -0.05611720 Eh    -35.21 kcal/mol
-----------------------------------------------------------------------
Final Gibbs free energy         ...  -1123.52446265 Eh

For completeness - the Gibbs free energy minus the electronic energy
G-E(el)                           ...      0.22511395 Eh    141.26 kcal/mol


Maximum memory used throughout the entire PROP-calculation: 105.7 MB

--------------------------------
SUGGESTED CITATIONS FOR THIS RUN
--------------------------------

Below you find a list of papers that are relevant to this ORCA run
We neither can nor want to force you to cite these papers, but we appreciate if you do
You receive ORCA, which is the product of decades of hard work by many enthusiastic individuals, for free
The only thing we kindly ask in return is that you cite our papers,
We deeply appreciate it, if you show your appreciation for ORCA by not just citing the generic ORCA reference.

Please note that relegating all ORCA citations to the supporting information does *not* help us.
SI sections are not indexed - citations you put there will not count into any citation statistics
But we need these citations in order to attract the funding resources that allow us to do what we are doing

Therefore, if you are a happy ORCA user, please consider citing a few of the papers listed below in the main body of your paper

In addition to the list printed below, the program has created the file m1_00_Vitamin_B7-GFN1_000-B97-3C-TZ.bibtex that contains the list in bibtex format
You can import this file easily into all common literature databanks and citation aid programs


List of essential papers. We consider these as the minimum necessary citations

  1. Neese,F.
     Software update: the ORCA program system, version 5.0
     WIRES Comput. Molec. Sci., 2022 12(1)e1606
     doi.org/10.1002/wcms.1606

List of papers to cite with high priority. The work reported in these papers was absolutely
necessary for this run to complete.
Our perspective: the developers of density functionals and basis sets usually get cited in chemistry papers
Good! But without the algorithms to do something with them, the functionals or basis sets would not do anything.
Hence, in our opinion, the algorithm design and method developments papers are equally worthy of getting cited

  1. Neese,F.
     An improvement of the resolution of the identity approximation for the formation of the Coulomb matrix
     J. Comp. Chem., 2003 24(14)1740-1747
     doi.org/10.1002/jcc.10318
  2. Bykov,D.; Petrenko,T.; Izsak,R.; Kossmann,S.; Becker,U.; Valeev,E.; Neese,F.
     Efficient implementation of the analytic second derivatives of Hartree-Fock and hybrid DFT energies: a detailed analysis of different approximations
     Molec. Phys., 2015 113 1961-1977
     doi.org/10.1080/00268976.2015.1025114
  3. Neese,F.
     The SHARK Integral Generation and Digestion System
     J. Comp. Chem., 2022  1-16
     doi.org/10.1002/jcc.26942
  4. Grimme,S.; Antony,J.; Ehrlich,S.; Krieg,H.
     A consistent and accurate ab initio parametrization of density functional dispersion correction (DFT-D) for the 94 elements H-Pu
     J. Chem. Phys., 2010 132 154104
     doi.org/10.1063/1.3382344
  5. Grimme,S.; Ehrlich,S.; Goerigk,L.
     Effect of the damping function in dispersion corrected density functional theory
     J. Comput. Chem., 2011 32(7)1456-1465
     doi.org/10.1002/jcc.21759

List of suggested additional citations. These are papers that are important in the 'surrounding' of 
of this run, or papers that preceded the highly important papers. If you like your results we are grateful for a citation.

  1. Neese,F.
     The ORCA program system
     WIRES Comput. Molec. Sci., 2012 2(1)73-78
     doi.org/10.1002/wcms.81
  2. Neese,F.
     Software update: the ORCA program system, version 4.0
     WIRES Comput. Molec. Sci., 2018 8(1)1-6
     doi.org/10.1002/wcms.1327
  3. Neese,F.; Wennmohs,F.; Becker,U.; Riplinger,C.
     The ORCA quantum chemistry program package
     J. Chem. Phys., 2020 152 Art. No. L224108
     doi.org/10.1063/5.0004608

List of optional additional citations

  1. Neese,F.
     Approximate second-order SCF convergence for spin unrestricted wavefunctions
     Chem. Phys. Lett., 2000 325(1-3)93-98
     doi.org/10.1016/s0009-2614(00)00662-x

Timings for individual modules:

Sum of individual times          ...      397.878 sec (=   6.631 min)
Startup calculation              ...       42.148 sec (=   0.702 min)  10.6 %
SCF iterations                   ...      100.846 sec (=   1.681 min)  25.3 %
Property integrals               ...       86.742 sec (=   1.446 min)  21.8 %
SCF Response                     ...       74.335 sec (=   1.239 min)  18.7 %
Property calculations            ...       35.409 sec (=   0.590 min)   8.9 %
SCF Gradient evaluation          ...       58.282 sec (=   0.971 min)  14.6 %
Geometry relaxation              ...        0.116 sec (=   0.002 min)   0.0 %
                             ****ORCA TERMINATED NORMALLY****
TOTAL RUN TIME: 0 days 0 hours 6 minutes 40 seconds 746 msec
