
                                 *****************
                                 * O   R   C   A *
                                 *****************

                                            #,                                       
                                            ###                                      
                                            ####                                     
                                            #####                                    
                                            ######                                   
                                           ########,                                 
                                     ,,################,,,,,                         
                               ,,#################################,,                 
                          ,,##########################################,,             
                       ,#########################################, ''#####,          
                    ,#############################################,,   '####,        
                  ,##################################################,,,,####,       
                ,###########''''           ''''###############################       
              ,#####''   ,,,,##########,,,,          '''####'''          '####       
            ,##' ,,,,###########################,,,                        '##       
           ' ,,###''''                  '''############,,,                           
         ,,##''                                '''############,,,,        ,,,,,,###''
      ,#''                                            '''#######################'''  
     '                                                          ''''####''''         
             ,#######,   #######,   ,#######,      ##                                
            ,#'     '#,  ##    ##  ,#'     '#,    #''#        ,####,   ,####,        
            ##       ##  ##   ,#'  ##            #'  '#       #'       #'  '#        
            ##       ##  #######   ##           ,######,      #####,   #    #        
            '#,     ,#'  ##    ##  '#,     ,#' ,#      #,     #,   #   #,  ,#        
             '#######'   ##     ##  '#######'  #'      '#     '####' # '####'        



                #########################################################
                #                        -***-                          #
                #          Department of theory and spectroscopy        #
                #                                                       #
                #                      Frank Neese                      #
                #                                                       #
                #     Directorship, Architecture, Infrastructure        #
                #                    SHARK, DRIVERS                     #
                #        Core code/Algorithms in most modules           #
                #                                                       #
                #        Max Planck Institute fuer Kohlenforschung      #
                #                Kaiser Wilhelm Platz 1                 #
                #                 D-45470 Muelheim/Ruhr                 #
                #                      Germany                          #
                #                                                       #
                #                  All rights reserved                  #
                #                        -***-                          #
                #########################################################


                         Program Version 6.0.1  -  RELEASE   -


 With contributions from (in alphabetic order):
[Max-Planck-Institut fuer Kohlenforschung]                               
  Daniel Aravena         : Magnetic Suceptibility                        
  Michael Atanasov       : Ab Initio Ligand Field Theory (pilot matlab implementation)
  Alexander A. Auer      : GIAO ZORA, VPT2 properties, NMR spectrum      
  Ute Becker             : All parallelization in ORCA, NUMFREQ, NUMCALC 
  Giovanni Bistoni       : ED, misc. LED, open-shell LED, HFLD           
  Martin Brehm           : Molecular dynamics                            
  Dmytro Bykov           : pre 5.0 version of the SCF Hessian            
  Marcos Casanova-Páez   : Triplet and SCS-CIS(D). UHF-(DLPNO)-IP/EA/STEOM-CCSD. UHF-CVS-IP/STEOM-CCSD   
  Vijay G. Chilkuri      : MRCI spin determinant printing, contributions to CSF-ICE 
  Pauline Colinet        : FMM embedding                                 
  Dipayan Datta          : RHF DLPNO-CCSD density                        
  Achintya Kumar Dutta   : EOM-CC, STEOM-CC                              
  Nicolas Foglia         : Exact transition moments, OPA infrastructure, MCD improvements    
  Dmitry Ganyushin       : Spin-Orbit,Spin-Spin,Magnetic field MRCI      
  Miquel Garcia-Rates    : C-PCM and meta-GGA Hessian, CCSD/C-PCM, Gaussian charge scheme 
  Tiago L. C. Gouveia    : GS-ROHF, GS-ROCIS                             
  Yang Guo               : DLPNO-NEVPT2, F12-NEVPT2, CIM, IAO-localization        
  Andreas Hansen         : Spin unrestricted coupled pair/coupled cluster methods 
  Ingolf Harden          : AUTO-CI MPn and infrastructure                
  Benjamin Helmich-Paris : MC-RPA, TRAH-(SCF,CASSCF), AVAS, COSX integrals, SCF dyn. polar. 
  Lee Huntington         : MR-EOM, pCC                                   
  Robert Izsak           : Overlap fitted RIJCOSX, COSX-SCS-MP3, EOM     
  Riya Kayal             : Wick's Theorem for AUTO-CI, AUTO-CI UHF-CCSDT 
  Emily Kempfer          : AUTO-CI, RHF CISDT and CCSDT                  
  Christian Kollmar      : KDIIS, OOCD, Brueckner-CCSD(T), CCSD density, CASPT2, CASPT2-K, improved NEVPT2 
  Axel Koslowski         : Symmetry handling                             
  Simone Kossmann        : meta-GGA functionals, TD-DFT gradient, OOMP2, (MP2 Hessian; deprecated post 5.0) 
  Lucas Lang             : DCDCAS                                        
  Marvin Lechner         : AUTO-CI (C++ implementation), FIC-MRCC        
  Spencer Leger          : CASSCF response                               
  Dagmar Lenk            : GEPOL surface, SMD, ORCA-2-JSON               
  Dimitrios Liakos       : Extrapolation schemes; Compound Job, initial MDCI parallelization 
  Dimitrios Manganas     : Further ROCIS development; embedding schemes. LFT, Crystal Embedding 
  Dimitrios Pantazis     : SARC Basis sets                               
  Anastasios Papadopoulos: AUTO-CI, single reference methods and gradients 
  Taras Petrenko         : pre 6.0 DFT Hessian and TD-DFT gradient, (ASA, deprecated), ECA, 1-Electron XAS/XES, NRVS 
  Peter Pinski           : DLPNO-MP2, DLPNO-MP2 Gradient                 
  Christoph Reimann      : Effective Core Potentials                     
  Marius Retegan         : Local ZFS, SOC                                
  Christoph Riplinger    : Optimizer, TS searches, QM/MM, DLPNO-CCSD(T), (RO)-DLPNO pert. Triples 
  Michael Roemelt        : Original ROCIS implementation                 
  Masaaki Saitow         : Open-shell DLPNO-CCSD energy and density      
  Barbara Sandhoefer     : DKH picture change effects                    
  Kantharuban Sivalingam : CASSCF convergence/infrastructure, NEVPT2 and variants, FIC-MRCI 
  Bernardo de Souza      : ESD, SOC TD-DFT                               
  Georgi L. Stoychev     : AutoAux, RI-MP2 NMR, DLPNO-MP2 response, X2C  
  Van Anh Tran           : RI-MP2 g-tensors                              
  Willem Van den Heuvel  : Paramagnetic NMR                              
  Zikuan Wang            : NOTCH, Electric field optimization            
  Frank Wennmohs         : Technical directorship and infrastructure     
  Hang Xu                : AUTO-CI-Response properties                   
                                                                         
[FACCTs GmbH]                                                            
  Markus Bursch, Miquel Garcia-Rates, Christoph Riplinger, Bernardo de Souza, Georgi L. Stoychev 
                                                                 
  APM, Basis sets (HGBS, AHGBS, def-TZVP (Ac-Lr), def2-XVPD (La-Lu)), CI-OPT, improved COSX, DLPNO-Multilevel,           
  DOCKER, DRACO, updates on ESD, GOAT, IRC, LR-CPCM, MBIS, meta-GGA TD-DFT gradient, ML-optimized integration grids, 
  MM, NACMEs, nearIR, NEB, NEB-TS, NL-DFT gradient (VV10), 2- and 3-layer-ONIOM, interface openCOSMO-RS, QMMM,   
  Crystal-QMMM, SF, symmetry and pop. for TD-DFT, r2SCAN hybrids, SOLVATOR                                   
                                                                         
[Other institutions]                                                     
  V. Asgeirsson          : NEB                                           
  Christoph Bannwarth    : sTDA-DFT, sTD-DFT, PBEh-3c, B97-3c, D3        
  Sebastian Ehlert       : rSCAN, r2SCAN, r2SCAN-3c, D4, dhf basis sets  
  Marvin Friede          : D4 for Fr, Ra, Ac-Lr                          
  Lars Goerigk           : TD-DFT with DH, B97 family of functionals     
  Stefan Grimme          : VdW corrections, initial TS optimization, DFT functionals, gCP, sTDA/sTD-DF 
  Waldemar Hujo          : DFT-NL                                        
  H. Jonsson             : NEB                                           
  Holger Kruse           : gCP                                           
  Marcel Mueller         : wB97X-3c, vDZP basis set                      
  Hagen Neugebauer       : wr2SCAN                                       
  Tobias Risthaus        : range-separated hybrid DFT                    
  Lukas Wittmann         : regularized MP2, r2SCAN double-hybrids, wr2SCAN        
                                                                         
We gratefully acknowledge several colleagues who have allowed us to      
interface, adapt or use parts of their codes:                            
  Ed Valeev, F. Pavosevic, A. Kumar             : LibInt (2-el integral package), F12 methods 
  Garnet Chan, S. Sharma, J. Yang, R. Olivares  : DMRG                   
  Ulf Ekstrom                                   : XCFun DFT Library      
  Mihaly Kallay                                 : mrcc  (arbitrary order and MRCC methods)
  Frank Weinhold                                : gennbo (NPA and NBO analysis)           
  Simon Mueller                                 : openCOSMO-RS                            
  Christopher J. Cramer and Donald G. Truhlar   : smd solvation model                     
  S Lehtola, MJT Oliveira, MAL Marques          : LibXC Library                           
  Liviu Ungur et al                             : ANISO software                          


 Your calculation uses the libint2 library for the computation of 2-el integrals
 For citations please refer to: http://libint.valeyev.net

 Your ORCA version has been built with support for libXC version: 6.2.2
 For citations please refer to: https://libxc.gitlab.io

 This ORCA versions uses:
   CBLAS   interface :  Fast vector & matrix operations
   LAPACKE interface :  Fast linear algebra routines
   SCALAPACK package :  Parallel linear algebra routines
   Shared memory     :  Shared parallel matrices
   BLAS/LAPACK       :  OpenBLAS 0.3.27  USE64BITINT DYNAMIC_ARCH NO_AFFINITY Zen SINGLE_THREADED
        Core in use  :  Zen
   Copyright (c) 2011-2014, The OpenBLAS Project


NOTE: MaxCore=6000 MB was set to SCF,MP2,MDCI,CIPSI,MRCI and CIS
      => If you want to overwrite this, your respective input block should be placed after the MaxCore statement
Your calculation utilizes the atom-pairwise dispersion correction
with the Becke-Johnson damping scheme (D3BJ)


Your calculation employs the composite approach B97-3c by Grimme and coworkers.
For the correct reference, please check the publication list of the Grimme group:
http://www.thch.uni-bonn.de/tc/index.php?section=publikationen&subsection=grimme#2017
   

XCFun DFT library Copyright 2009-2010 Ulf Ekstrom and contributors.
See http://admol.org/xcfun for more information.
This is free software; see the source code for copying conditions.
There is ABSOLUTELY NO WARRANTY; not even for MERCHANTABILITY or FITNESS FOR A PARTICULAR PURPOSE.
For details see the documentation.
Scientific users of this library should cite U. Ekstrom, L. Visscher, R. Bast, A. J. Thorvaldsen and K. Ruud;
J.Chem.Theor.Comp. 2010, DOI: 10.1021/ct100117s
XCFun Version 0.99 

================================================================================

----- Orbital basis set information -----
Your calculation utilizes the basis: def2-mTZVP
----- AuxJ basis set information -----
Your calculation utilizes the basis: def2-mTZVP/J
================================================================================
                                        WARNINGS
                       Please study these warnings very carefully!
================================================================================


WARNING: Geometry Optimization
  ===> : Switching off AutoStart
         For restart on a previous wavefunction, please use MOREAD

================================================================================
                                       INPUT FILE
================================================================================
NAME = m1_01_Vitamin_B1-GFN2_000-B97-3C-TZ.inp
|  1> %pal nprocs 16 end
|  2> %MaxCore 6000
|  3> # put your comments here
|  4> ! B97-3C  OPT  FREQ DEFGRID3 NOTRAH
|  5> %scf MaxIter 800 end
|  6> %output
|  7> Print [P_Hirshfeld] 1
|  8> end
|  9> %geom
| 10> MaxIter 3000
| 11>  TolE 1e-6 #TolE 5e-6 Energy change (a.u.)
| 12>  TolRMSG 3e-5 #TolRMSG 1e-4 RMS gradient (a.u.)
| 13>  TolMaxG 1e-4 #TolMaxG 3e-3 Max. element of gradient (a.u.)
| 14>  TolRMSD 2e-3 #TolRMSD 2e-3 RMS displacement (a.u.)
| 15>  TolMaxD 4e-3 #TolMaxD 4e-3 Max. displacement (a.u.)
| 16> end
| 17> * xyz 1 1
| 18>  S 3.09340240855739 6.22658197131589 3.16860775236676
| 19>  O 3.25167331018371 6.22289596353861 0.70134816266860
| 20>  N 1.98552484781702 4.95782994921090 5.05433514746531
| 21>  N -1.57596320851538 5.38920990485354 8.14443758761087
| 22>  N -0.81609038480971 7.29023666282006 7.00263011337255
| 23>  N -0.45477662197572 3.40537793789735 8.18725634615243
| 24>  C 1.22213518773172 4.65721367417832 3.95164099453944
| 25>  C 1.65181876450763 4.51133419471031 6.39156619858535
| 26>  C 1.69226240217981 5.26209225313435 2.82347618851399
| 27>  C 1.18148137615472 5.19090520049139 1.42749788918813
| 28>  C 0.46118138685818 5.27915772839493 6.92124912278615
| 29>  C 2.98258261532090 5.78587951692874 4.79398517655186
| 30>  C 0.03871977975881 3.76762145938605 4.07620580275904
| 31>  C 2.36931620459517 5.15658116565203 0.44899719704289
| 32>  C -0.50718917589427 4.69465246690439 7.77005698274477
| 33>  C 0.23882642601985 6.60862581338250 6.59997608524770
| 34>  C -1.70545531241460 6.64610237068167 7.75290727335394
| 35>  C -2.90932916508993 7.39180572100526 8.19952301210031
| 36>  H 2.52753682856584 4.66373228805779 7.03017649122281
| 37>  H 1.42298565361957 3.44347843040236 6.35427482386328
| 38>  H 0.56720024379590 6.07280618353598 1.21959122811831
| 39>  H 0.56505385006110 4.30516570527897 1.28221291022718
| 40>  H 3.67291696705266 6.11260995834253 5.54886482311518
| 41>  H 0.33982744078016 2.76027509687798 4.36315966669602
| 42>  H -0.64482771070813 4.14694775733359 4.83445409755266
| 43>  H -0.49477095030020 3.70953419458005 3.13379974653730
| 44>  H 2.00639527052750 5.16604283114586 -0.58175260283755
| 45>  H 2.95068027156308 4.24436190609290 0.60618011573140
| 46>  H 0.93506929494877 7.16166735313442 5.97831960926766
| 47>  H 0.42646615090148 2.93233170410473 8.28356002988309
| 48>  H -1.16693073568245 3.15623623439635 8.85635322565245
| 49>  H 2.91306598367363 7.03889593161031 0.31301434997349
| 50>  H -2.67201196920711 7.92926234614541 9.11688713422797
| 51>  H -3.19514486271857 8.12134951632711 7.44792159309227
| 52>  H -3.72172656786028 6.70223360815078 8.40573872462725
| 53> *
| 54> 
| 55> 
| 56> 
| 57> 
| 58>                          ****END OF INPUT****
================================================================================

                       *****************************
                       * Geometry Optimization Run *
                       *****************************

Geometry optimization settings:
Update method            Update   .... BFGS
Choice of coordinates    CoordSys .... (2022) Redundant Internals
Initial Hessian          InHess   .... Almloef's Model
Max. no of cycles        MaxIter  .... 3000

Convergence Tolerances:
Energy Change            TolE     ....  1.0000e-06 Eh
Max. Gradient            TolMAXG  ....  1.0000e-04 Eh/bohr
RMS Gradient             TolRMSG  ....  3.0000e-05 Eh/bohr
Max. Displacement        TolMAXD  ....  4.0000e-03 bohr
RMS Displacement         TolRMSD  ....  2.0000e-03 bohr
Strict Convergence                .... False

------------------------------------------------------------------------------
                        ORCA OPTIMIZATION COORDINATE SETUP
------------------------------------------------------------------------------

The optimization will be done in redundant internal coordinates (2022)
Making redundant internal coordinates   ...  (2022 redundants) done
Evaluating the initial hessian          ...  (Almloef) done
Evaluating the coordinates              ...  done
Calculating the B-matrix                .... done
Calculating the G-matrix                .... done
Diagonalizing the G-matrix              .... done
Small eigenvalue found = 3.022e-03
Small eigenvalue found = 7.546e-03
Small eigenvalue found = 1.406e-02
Small eigenvalue found = 1.886e-02
The first mode is                       ....   68
The number of degrees of freedom        ....   99

    -----------------------------------------------------------------
                    Redundant Internal Coordinates


    -----------------------------------------------------------------
         Definition                    Initial Value    Approx d2E/dq
    -----------------------------------------------------------------
      1. B(C   6,N   2)                  1.3744         0.592530   
      2. B(C   7,N   2)                  1.4488         0.450949   
      3. B(C   8,S   0)                  1.7357         0.473165   
      4. B(C   8,C   6)                  1.3637         0.688197   
      5. B(C   9,C   8)                  1.4882         0.435589   
      6. B(C  10,C   7)                  1.5125         0.398342   
      7. B(C  11,S   0)                  1.6877         0.564333   
      8. B(C  11,N   2)                  1.3220         0.718509   
      9. B(C  12,C   6)                  1.4857         0.439566   
     10. B(C  13,C   9)                  1.5393         0.360963   
     11. B(C  13,O   1)                  1.4069         0.525984   
     12. B(C  14,C  10)                  1.4142         0.571722   
     13. B(C  14,N   5)                  1.3561         0.633792   
     14. B(C  14,N   3)                  1.3285         0.701508   
     15. B(C  15,N   4)                  1.3189         0.726549   
     16. B(C  15,C  10)                  1.3857         0.634762   
     17. B(C  16,N   4)                  1.3300         0.697694   
     18. B(C  16,N   3)                  1.3228         0.716247   
     19. B(C  17,C  16)                  1.4849         0.440933   
     20. B(H  18,C   7)                  1.0945         0.354196   
     21. B(H  19,C   7)                  1.0927         0.356499   
     22. B(H  20,C   9)                  1.0947         0.353967   
     23. B(H  21,C   9)                  1.0889         0.361606   
     24. B(H  22,C  11)                  1.0739         0.382108   
     25. B(H  23,C  12)                  1.0898         0.360309   
     26. B(H  24,C  12)                  1.0891         0.361337   
     27. B(H  25,C  12)                  1.0845         0.367465   
     28. B(H  26,C  13)                  1.0928         0.356394   
     29. B(H  27,C  13)                  1.0931         0.356042   
     30. B(H  28,C  15)                  1.0849         0.366874   
     31. B(H  29,N   5)                  1.0048         0.441043   
     32. B(H  30,N   5)                  1.0084         0.435215   
     33. B(H  31,O   1)                  0.9650         0.510406   
     34. B(H  32,C  17)                  1.0894         0.360929   
     35. B(H  33,C  17)                  1.0857         0.365781   
     36. B(H  34,C  17)                  1.0854         0.366280   
     37. A(C   8,S   0,C  11)           89.6214         0.452932   
     38. A(C  13,O   1,H  31)          110.4041         0.358711   
     39. A(C   6,N   2,C  11)          113.4477         0.436349   
     40. A(C   7,N   2,C  11)          123.2680         0.415532   
     41. A(C   6,N   2,C   7)          123.0373         0.401591   
     42. A(C  14,N   3,C  16)          119.4794         0.449621   
     43. A(C  15,N   4,C  16)          117.1799         0.450343   
     44. A(C  14,N   5,H  29)          120.7280         0.361188   
     45. A(C  14,N   5,H  30)          114.3125         0.360369   
     46. A(H  29,N   5,H  30)          116.0691         0.304466   
     47. A(C   8,C   6,C  12)          127.5568         0.415853   
     48. A(N   2,C   6,C  12)          120.4047         0.402366   
     49. A(N   2,C   6,C   8)          112.0385         0.435830   
     50. A(C  10,C   7,H  19)          110.0713         0.327220   
     51. A(N   2,C   7,H  19)          108.5367         0.331987   
     52. A(C  10,C   7,H  18)          110.7823         0.326871   
     53. A(N   2,C   7,C  10)          110.3716         0.377093   
     54. A(H  18,C   7,H  19)          108.8768         0.289629   
     55. A(N   2,C   7,H  18)          108.1404         0.331631   
     56. A(S   0,C   8,C   6)          111.1173         0.444680   
     57. A(C   6,C   8,C   9)          129.5301         0.415181   
     58. A(S   0,C   8,C   9)          119.3522         0.409701   
     59. A(C   8,C   9,C  13)          109.4200         0.370857   
     60. A(C  13,C   9,H  20)          109.2839         0.321591   
     61. A(H  20,C   9,H  21)          108.1990         0.290246   
     62. A(C   8,C   9,H  21)          111.0005         0.332873   
     63. A(C   8,C   9,H  20)          109.4036         0.331697   
     64. A(C  13,C   9,H  21)          109.5052         0.322717   
     65. A(C  14,C  10,C  15)          115.2033         0.429602   
     66. A(C   7,C  10,C  15)          122.1520         0.402854   
     67. A(C   7,C  10,C  14)          122.6436         0.395511   
     68. A(S   0,C  11,N   2)          113.7507         0.459704   
     69. A(N   2,C  11,H  22)          122.4797         0.363279   
     70. A(S   0,C  11,H  22)          123.7342         0.369223   
     71. A(H  23,C  12,H  25)          108.3734         0.291793   
     72. A(H  24,C  12,H  25)          108.3560         0.291924   
     73. A(C   6,C  12,H  25)          110.5514         0.334266   
     74. A(H  23,C  12,H  24)          108.1816         0.291023   
     75. A(C   6,C  12,H  24)          110.4725         0.333334   
     76. A(C   6,C  12,H  23)          110.8207         0.333176   
     77. A(O   1,C  13,C   9)          110.6736         0.380726   
     78. A(H  26,C  13,H  27)          108.6317         0.289852   
     79. A(C   9,C  13,H  27)          109.7312         0.321899   
     80. A(O   1,C  13,H  27)          105.8526         0.340528   
     81. A(C   9,C  13,H  26)          110.0660         0.321951   
     82. A(O   1,C  13,H  26)          111.7715         0.340585   
     83. A(N   3,C  14,N   5)          116.1965         0.439775   
     84. A(N   5,C  14,C  10)          123.4453         0.426682   
     85. A(N   3,C  14,C  10)          120.2621         0.434530   
     86. A(C  10,C  15,H  28)          121.2611         0.355440   
     87. A(N   4,C  15,H  28)          115.1366         0.361450   
     88. A(N   4,C  15,C  10)          123.5996         0.445628   
     89. A(N   4,C  16,C  17)          117.9445         0.414399   
     90. A(N   3,C  16,C  17)          117.8730         0.416338   
     91. A(N   3,C  16,N   4)          124.1736         0.449176   
     92. A(H  33,C  17,H  34)          111.1855         0.292337   
     93. A(H  32,C  17,H  34)          108.4522         0.291724   
     94. A(C  16,C  17,H  34)          110.1777         0.334259   
     95. A(H  32,C  17,H  33)          107.9860         0.291661   
     96. A(C  16,C  17,H  33)          110.0390         0.334183   
     97. A(C  16,C  17,H  32)          108.9310         0.333443   
     98. D(C  12,C   6,N   2,C   7)     -3.9442         0.028240   
     99. D(C  12,C   6,N   2,C  11)   -178.3979         0.028240   
    100. D(C   8,C   6,N   2,C  11)      1.5176         0.028240   
    101. D(C   8,C   6,N   2,C   7)    175.9713         0.028240   
    102. D(H  19,C   7,N   2,C   6)     48.1055         0.017349   
    103. D(C  10,C   7,N   2,C  11)    101.3123         0.017349   
    104. D(H  18,C   7,N   2,C  11)    -20.0163         0.017349   
    105. D(C  10,C   7,N   2,C   6)    -72.6001         0.017349   
    106. D(H  18,C   7,N   2,C   6)    166.0712         0.017349   
    107. D(C   9,C   8,C   6,N   2)    179.0918         0.033263   
    108. D(S   0,C   8,C   6,N   2)     -0.6414         0.033263   
    109. D(S   0,C   8,C   6,C  12)    179.2666         0.033263   
    110. D(C   9,C   8,C   6,C  12)     -1.0001         0.033263   
    111. D(C   6,C   8,S   0,C  11)     -0.2480         0.004801   
    112. D(C   9,C   8,S   0,C  11)    179.9881         0.004801   
    113. D(H  21,C   9,C   8,S   0)    159.0425         0.014005   
    114. D(H  20,C   9,C   8,C   6)     98.6617         0.014005   
    115. D(H  20,C   9,C   8,S   0)    -81.6238         0.014005   
    116. D(C  13,C   9,C   8,C   6)   -141.6399         0.014005   
    117. D(C  13,C   9,C   8,S   0)     38.0746         0.014005   
    118. D(C  15,C  10,C   7,H  18)     85.7438         0.011780   
    119. D(C  15,C  10,C   7,N   2)    -34.0022         0.011780   
    120. D(C  14,C  10,C   7,H  19)     25.8195         0.011780   
    121. D(C  14,C  10,C   7,H  18)    -94.6508         0.011780   
    122. D(C  14,C  10,C   7,N   2)    145.6032         0.011780   
    123. D(H  22,C  11,N   2,C   6)   -179.6476         0.042951   
    124. D(S   0,C  11,N   2,C   7)   -176.1751         0.042951   
    125. D(S   0,C  11,N   2,C   6)     -1.7360         0.042951   
    126. D(N   2,C  11,S   0,C   8)      1.1287         0.006281   
    127. D(H  22,C  11,N   2,C   7)      5.9133         0.042951   
    128. D(H  22,C  11,S   0,C   8)    179.0104         0.006281   
    129. D(H  25,C  12,C   6,N   2)    174.9557         0.014258   
    130. D(H  24,C  12,C   6,C   8)   -124.8772         0.014258   
    131. D(H  24,C  12,C   6,N   2)     55.0240         0.014258   
    132. D(H  23,C  12,C   6,C   8)    115.2346         0.014258   
    133. D(H  23,C  12,C   6,N   2)    -64.8642         0.014258   
    134. D(H  26,C  13,C   9,H  21)     61.5810         0.010449   
    135. D(H  26,C  13,C   9,H  20)    -56.7759         0.010449   
    136. D(H  26,C  13,C   9,C   8)   -176.5479         0.010449   
    137. D(O   1,C  13,C   9,H  21)   -174.3710         0.010449   
    138. D(O   1,C  13,C   9,H  20)     67.2721         0.010449   
    139. D(O   1,C  13,C   9,C   8)    -52.4999         0.010449   
    140. D(H  27,C  13,O   1,H  31)    161.4739         0.021955   
    141. D(H  26,C  13,O   1,H  31)     43.3722         0.021955   
    142. D(C   9,C  13,O   1,H  31)    -79.6929         0.021955   
    143. D(N   5,C  14,C  10,C   7)      0.2606         0.022428   
    144. D(N   3,C  14,C  10,C  15)      3.5947         0.022428   
    145. D(N   3,C  14,C  10,C   7)   -176.0360         0.022428   
    146. D(C  10,C  14,N   5,H  30)    174.5980         0.032642   
    147. D(C  10,C  14,N   5,H  29)     28.5477         0.032642   
    148. D(N   3,C  14,N   5,H  30)     -8.9666         0.032642   
    149. D(N   3,C  14,N   5,H  29)   -155.0170         0.032642   
    150. D(C  10,C  14,N   3,C  16)     -2.2068         0.036868   
    151. D(N   5,C  14,C  10,C  15)    179.8913         0.022428   
    152. D(N   5,C  14,N   3,C  16)   -178.7632         0.036868   
    153. D(H  28,C  15,C  10,C  14)    178.2488         0.027964   
    154. D(H  28,C  15,C  10,C   7)     -2.1185         0.027964   
    155. D(N   4,C  15,C  10,C  14)     -2.3809         0.027964   
    156. D(N   4,C  15,C  10,C   7)    177.2518         0.027964   
    157. D(H  28,C  15,N   4,C  16)    179.1417         0.039824   
    158. D(C  10,C  15,N   4,C  16)     -0.2637         0.039824   
    159. D(C  17,C  16,N   3,C  14)   -179.5974         0.038591   
    160. D(N   4,C  16,N   3,C  14)     -0.7055         0.038591   
    161. D(C  17,C  16,N   4,C  15)   -179.1459         0.036430   
    162. D(N   3,C  16,N   4,C  15)      1.9630         0.036430   
    163. D(H  34,C  17,C  16,N   3)    -25.6612         0.014345   
    164. D(H  33,C  17,C  16,N   4)     32.4294         0.014345   
    165. D(H  33,C  17,C  16,N   3)   -148.6084         0.014345   
    166. D(H  32,C  17,C  16,N   4)    -85.7724         0.014345   
    167. D(H  32,C  17,C  16,N   3)     93.1898         0.014345   
    -----------------------------------------------------------------

Number of atoms                         .... 35
Number of degrees of freedom            .... 167


         *************************************************************
         *                GEOMETRY OPTIMIZATION CYCLE   1            *
         *************************************************************
---------------------------------
CARTESIAN COORDINATES (ANGSTROEM)
---------------------------------
  S      3.093402    6.226582    3.168608
  O      3.251673    6.222896    0.701348
  N      1.985525    4.957830    5.054335
  N     -1.575963    5.389210    8.144438
  N     -0.816090    7.290237    7.002630
  N     -0.454777    3.405378    8.187256
  C      1.222135    4.657214    3.951641
  C      1.651819    4.511334    6.391566
  C      1.692262    5.262092    2.823476
  C      1.181481    5.190905    1.427498
  C      0.461181    5.279158    6.921249
  C      2.982583    5.785880    4.793985
  C      0.038720    3.767621    4.076206
  C      2.369316    5.156581    0.448997
  C     -0.507189    4.694652    7.770057
  C      0.238826    6.608626    6.599976
  C     -1.705455    6.646102    7.752907
  C     -2.909329    7.391806    8.199523
  H      2.527537    4.663732    7.030176
  H      1.422986    3.443478    6.354275
  H      0.567200    6.072806    1.219591
  H      0.565054    4.305166    1.282213
  H      3.672917    6.112610    5.548865
  H      0.339827    2.760275    4.363160
  H     -0.644828    4.146948    4.834454
  H     -0.494771    3.709534    3.133800
  H      2.006395    5.166043   -0.581753
  H      2.950680    4.244362    0.606180
  H      0.935069    7.161667    5.978320
  H      0.426466    2.932332    8.283560
  H     -1.166931    3.156236    8.856353
  H      2.913066    7.038896    0.313014
  H     -2.672012    7.929262    9.116887
  H     -3.195145    8.121350    7.447922
  H     -3.721727    6.702234    8.405739

----------------------------
CARTESIAN COORDINATES (A.U.)
----------------------------
  NO LB      ZA    FRAG     MASS         X           Y           Z
   0 S    16.0000    0    32.060    5.845683   11.766535    5.987801
   1 O     8.0000    0    15.999    6.144772   11.759569    1.325356
   2 N     7.0000    0    14.007    3.752098    9.368941    9.551309
   3 N     7.0000    0    14.007   -2.978139   10.184131   15.390757
   4 N     7.0000    0    14.007   -1.542187   13.776551   13.233053
   5 N     7.0000    0    14.007   -0.859403    6.435232   15.471672
   6 C     6.0000    0    12.011    2.309501    8.800858    7.467519
   7 C     6.0000    0    12.011    3.121485    8.525186   12.078310
   8 C     6.0000    0    12.011    3.197912    9.943913    5.335597
   9 C     6.0000    0    12.011    2.232676    9.809389    2.697580
  10 C     6.0000    0    12.011    0.871507    9.976162   13.079265
  11 C     6.0000    0    12.011    5.636264   10.933728    9.059319
  12 C     6.0000    0    12.011    0.073170    7.119773    7.702913
  13 C     6.0000    0    12.011    4.477359    9.744526    0.848482
  14 C     6.0000    0    12.011   -0.958449    8.871607   14.683280
  15 C     6.0000    0    12.011    0.451317   12.488493   12.472147
  16 C     6.0000    0    12.011   -3.222843   12.559313   14.650871
  17 C     6.0000    0    12.011   -5.497835   13.968488   15.494853
  18 H     1.0000    0     1.008    4.776352    8.813177   13.285108
  19 H     1.0000    0     1.008    2.689053    6.507231   12.007839
  20 H     1.0000    0     1.008    1.071853   11.475941    2.304693
  21 H     1.0000    0     1.008    1.067797    8.135584    2.423031
  22 H     1.0000    0     1.008    6.940807   11.551159   10.485835
  23 H     1.0000    0     1.008    0.642181    5.216164    8.245177
  24 H     1.0000    0     1.008   -1.218548    7.836596    9.135794
  25 H     1.0000    0     1.008   -0.934982    7.010004    5.922023
  26 H     1.0000    0     1.008    3.791538    9.762406   -1.099353
  27 H     1.0000    0     1.008    5.575978    8.020682    1.145514
  28 H     1.0000    0     1.008    1.767025   13.533590   11.297387
  29 H     1.0000    0     1.008    0.805904    5.541304   15.653660
  30 H     1.0000    0     1.008   -2.205180    5.964422   16.736082
  31 H     1.0000    0     1.008    5.504897   13.301586    0.591511
  32 H     1.0000    0     1.008   -5.049371   14.984134   17.228420
  33 H     1.0000    0     1.008   -6.037949   15.347126   14.074532
  34 H     1.0000    0     1.008   -7.033044   12.665386   15.884544

--------------------------------
INTERNAL COORDINATES (ANGSTROEM)
--------------------------------
 S      0   0   0     0.000000000000     0.00000000     0.00000000
 O      1   0   0     2.472333543014     0.00000000     0.00000000
 N      1   2   0     2.528456484065   140.49534574     0.00000000
 N      3   1   2     4.734872641595   140.40710974   254.98921208
 N      4   3   1     2.344148832932    60.80212443   344.58044445
 N      4   3   1     2.279140645295    64.08321860   176.29703495
 C      3   1   2     1.374433815371    75.80442982   339.11551502
 C      3   1   2     1.448759846525   160.72789695   170.48733132
 C      7   3   1     1.363691139004   112.03850719     0.42368133
 C      9   7   3     1.488193624902   129.53007000   179.09181429
 C      8   3   1     1.512525816020   110.37155246    94.21926519
 C      3   1   2     1.321957785140    37.65844379   160.75826700
 C      7   3   1     1.485719599350   120.40466448   180.50818728
 C      2   1   3     1.406862580292    98.04687523     2.31206650
 C      4   3   1     1.328476121244    33.20777230   189.35240879
 C      5   4   3     1.318928767677    89.36241230   347.86082179
 C      4   3   1     1.322816261848    88.11077329   351.05183366
 C     17   4   3     1.484874189262   117.87301682   169.00902120
 H      8   3   1     1.094500074206   108.14039021   332.89059249
 H      8   3   1     1.092735637120   108.53665009   214.92491950
 H     10   9   7     1.094676131641   109.40358004    98.66169360
 H     10   9   7     1.088864120732   111.00050583   339.32799790
 H     12   3   1     1.073851749229   122.47971000   182.08831873
 H     13   7   3     1.089841748885   110.82072414   295.13580824
 H     13   7   3     1.089066613479   110.47254681    55.02401727
 H     13   7   3     1.084488664853   110.55142091   174.95565196
 H     14   2   1     1.092815756407   111.77154949   160.74274640
 H     14   2   1     1.093084912438   105.85262206   278.84446502
 H     16   5   4     1.084926657131   115.13658715   180.05803560
 H      6   4   3     1.004806430888   147.46084828    55.85088875
 H      6   4   3     1.008427342077    83.11415651   185.17318815
 H      2   1   3     0.965046123013   112.20063580   118.28813403
 H     18  17   4     1.089374135885   108.93104033    93.18978557
 H     18  17   4     1.085739128593   110.03904209   211.39158265
 H     18  17   4     1.085368213533   110.17773463   334.33884677

---------------------------
INTERNAL COORDINATES (A.U.)
---------------------------
 S      0   0   0     0.000000000000     0.00000000     0.00000000
 O      1   0   0     4.672033308004     0.00000000     0.00000000
 N      1   2   0     4.778090296421   140.49534574     0.00000000
 N      3   1   2     8.947612571610   140.40710974   254.98921208
 N      4   3   1     4.429799311393    60.80212443   344.58044445
 N      4   3   1     4.306951640297    64.08321860   176.29703495
 C      3   1   2     2.597303500253    75.80442982   339.11551502
 C      3   1   2     2.737759343755   160.72789695   170.48733132
 C      7   3   1     2.577002783973   112.03850719     0.42368133
 C      9   7   3     2.812278385313   129.53007000   179.09181429
 C      8   3   1     2.858259562763   110.37155246    94.21926519
 C      3   1   2     2.498138174520    37.65844379   160.75826700
 C      7   3   1     2.807603154571   120.40466448   180.50818728
 C      2   1   3     2.658584984814    98.04687523     2.31206650
 C      4   3   1     2.510456044605    33.20777230   189.35240879
 C      5   4   3     2.492414161060    89.36241230   347.86082179
 C      4   3   1     2.499760460390    88.11077329   351.05183366
 C     17   4   3     2.806005561033   117.87301682   169.00902120
 H      8   3   1     2.068305393805   108.14039021   332.89059249
 H      8   3   1     2.064971090934   108.53665009   214.92491950
 H     10   9   7     2.068638094142   109.40358004    98.66169360
 H     10   9   7     2.057654985236   111.00050583   339.32799790
 H     12   3   1     2.029285714476   122.47971000   182.08831873
 H     13   7   3     2.059502434706   110.82072414   295.13580824
 H     13   7   3     2.058037641073   110.47254681    55.02401727
 H     13   7   3     2.049386571914   110.55142091   174.95565196
 H     14   2   1     2.065122494444   111.77154949   160.74274640
 H     14   2   1     2.065631125629   105.85262206   278.84446502
 H     16   5   4     2.050214257368   115.13658715   180.05803560
 H      6   4   3     1.898808971981   147.46084828    55.85088875
 H      6   4   3     1.905651502485    83.11415651   185.17318815
 H      2   1   3     1.823672879096   112.20063580   118.28813403
 H     18  17   4     2.058618774200   108.93104033    93.18978557
 H     18  17   4     2.051749605924   110.03904209   211.39158265
 H     18  17   4     2.051048678041   110.17773463   334.33884677

---------------------
BASIS SET INFORMATION
---------------------
There are 5 groups of distinct atoms

 Group   1 Type S   : 14s9p1d contracted to 5s4p1d pattern {73211/6111/1}
 Group   2 Type O   : 11s6p2d contracted to 5s3p2d pattern {62111/411/11}
 Group   3 Type N   : 11s6p1d contracted to 5s3p1d pattern {62111/411/1}
 Group   4 Type C   : 11s6p1d contracted to 5s3p1d pattern {62111/411/1}
 Group   5 Type H   : 5s contracted to 3s pattern {311}

Atom   0S    basis set group =>   1
Atom   1O    basis set group =>   2
Atom   2N    basis set group =>   3
Atom   3N    basis set group =>   3
Atom   4N    basis set group =>   3
Atom   5N    basis set group =>   3
Atom   6C    basis set group =>   4
Atom   7C    basis set group =>   4
Atom   8C    basis set group =>   4
Atom   9C    basis set group =>   4
Atom  10C    basis set group =>   4
Atom  11C    basis set group =>   4
Atom  12C    basis set group =>   4
Atom  13C    basis set group =>   4
Atom  14C    basis set group =>   4
Atom  15C    basis set group =>   4
Atom  16C    basis set group =>   4
Atom  17C    basis set group =>   4
Atom  18H    basis set group =>   5
Atom  19H    basis set group =>   5
Atom  20H    basis set group =>   5
Atom  21H    basis set group =>   5
Atom  22H    basis set group =>   5
Atom  23H    basis set group =>   5
Atom  24H    basis set group =>   5
Atom  25H    basis set group =>   5
Atom  26H    basis set group =>   5
Atom  27H    basis set group =>   5
Atom  28H    basis set group =>   5
Atom  29H    basis set group =>   5
Atom  30H    basis set group =>   5
Atom  31H    basis set group =>   5
Atom  32H    basis set group =>   5
Atom  33H    basis set group =>   5
Atom  34H    basis set group =>   5
---------------------------------
AUXILIARY/J BASIS SET INFORMATION
---------------------------------
There are 5 groups of distinct atoms

 Group   1 Type S   : 14s5p5d2f1g contracted to 8s4p3d1f1g pattern {71111111/2111/311/2/1}
 Group   2 Type O   : 8s3p3d contracted to 6s3p3d pattern {311111/111/111}
 Group   3 Type N   : 8s3p3d contracted to 6s3p3d pattern {311111/111/111}
 Group   4 Type C   : 8s3p3d contracted to 6s3p3d pattern {311111/111/111}
 Group   5 Type H   : 5s2p contracted to 3s1p pattern {311/2}

Atom   0S    basis set group =>   1
Atom   1O    basis set group =>   2
Atom   2N    basis set group =>   3
Atom   3N    basis set group =>   3
Atom   4N    basis set group =>   3
Atom   5N    basis set group =>   3
Atom   6C    basis set group =>   4
Atom   7C    basis set group =>   4
Atom   8C    basis set group =>   4
Atom   9C    basis set group =>   4
Atom  10C    basis set group =>   4
Atom  11C    basis set group =>   4
Atom  12C    basis set group =>   4
Atom  13C    basis set group =>   4
Atom  14C    basis set group =>   4
Atom  15C    basis set group =>   4
Atom  16C    basis set group =>   4
Atom  17C    basis set group =>   4
Atom  18H    basis set group =>   5
Atom  19H    basis set group =>   5
Atom  20H    basis set group =>   5
Atom  21H    basis set group =>   5
Atom  22H    basis set group =>   5
Atom  23H    basis set group =>   5
Atom  24H    basis set group =>   5
Atom  25H    basis set group =>   5
Atom  26H    basis set group =>   5
Atom  27H    basis set group =>   5
Atom  28H    basis set group =>   5
Atom  29H    basis set group =>   5
Atom  30H    basis set group =>   5
Atom  31H    basis set group =>   5
Atom  32H    basis set group =>   5
Atom  33H    basis set group =>   5
Atom  34H    basis set group =>   5


           ************************************************************
           *        Program running with 16 parallel MPI-processes    *
           *              working on a common directory               *
           ************************************************************
------------------------------------------------------------------------------
                             ORCA STARTUP CALCULATIONS
                           -- RI-GTO INTEGRALS CHOSEN --
------------------------------------------------------------------------------
------------------------------------------------------------------------------
                   ___                                                        
                  /   \      - P O W E R E D   B Y -                         
                 /     \                                                     
                 |  |  |   _    _      __       _____    __    __             
                 |  |  |  | |  | |    /  \     |  _  \  |  |  /  |          
                  \  \/   | |  | |   /    \    | | | |  |  | /  /          
                 / \  \   | |__| |  /  /\  \   | |_| |  |  |/  /          
                |  |  |   |  __  | /  /__\  \  |    /   |      \           
                |  |  |   | |  | | |   __   |  |    \   |  |\   \          
                \     /   | |  | | |  |  |  |  | |\  \  |  | \   \       
                 \___/    |_|  |_| |__|  |__|  |_| \__\ |__|  \__/        
                                                                              
                      - O R C A' S   B I G   F R I E N D -                    
                                      &                                       
                       - I N T E G R A L  F E E D E R -                       
                                                                              
 v1 FN, 2020, v2 2021, v3 2022-2024                                           
------------------------------------------------------------------------------


----------------------
SHARK INTEGRAL PACKAGE
----------------------

Number of atoms                             ...     35
Number of basis functions                   ...    401
Number of shells                            ...    215
Maximum angular momentum                    ...      2
Integral batch strategy                     ... SHARK/LIBINT Hybrid
RI-J (if used) integral strategy            ... SPLIT-RIJ (Revised 2003 algorithm where possible)
Printlevel                                  ...      1
Contraction scheme used                     ... SEGMENTED contraction
Prescreening option                         ... SCHWARTZ
   Thresh                                   ... 2.500e-11
   Tcut                                     ... 2.500e-12
   Tpresel                                  ... 2.500e-12 
Coulomb Range Separation                    ... NOT USED
Exchange Range Separation                   ... NOT USED
Multipole approximations                    ... NOT USED
Finite Nucleus Model                        ... NOT USED
CABS basis                                  ... NOT available
Auxiliary Coulomb fitting basis             ... AVAILABLE
   # of basis functions in Aux-J            ...    663
   # of shells in Aux-J                     ...    289
   Maximum angular momentum in Aux-J        ...      4
Auxiliary J/K fitting basis                 ... NOT available
Auxiliary Correlation fitting basis         ... NOT available
Auxiliary 'external' fitting basis          ... NOT available

Checking pre-screening integrals            ... done (  0.0 sec) Dimension = 215
Check shell pair data                       ... done (  0.0 sec)
Shell pair information
Shell pair cut-off parameter TPreSel        ...   2.5e-12
Total number of shell pairs                 ...     23220
Shell pairs after pre-screening             ...     17426
Total number of primitive shell pairs       ...     87201
Primitive shell pairs kept                  ...     41783
          la=0 lb=0:   7073 shell pairs
          la=1 lb=0:   6208 shell pairs
          la=1 lb=1:   1348 shell pairs
          la=2 lb=0:   1825 shell pairs
          la=2 lb=1:    839 shell pairs
          la=2 lb=2:    133 shell pairs

Calculating one electron integrals          ... done (  0.0 sec)
Calculating RI/J V-Matrix + Cholesky decomp.... done (  0.0 sec)
Calculating Nuclear repulsion               ... done (  0.0 sec) ENN=   1472.597767940927 Eh

Diagonalization of the overlap matrix:
Smallest eigenvalue                        ... 5.101e-05
Time for diagonalization                   ...    0.013 sec
Threshold for overlap eigenvalues          ... 1.000e-07
Number of eigenvalues below threshold      ... 0
Time for construction of square roots      ...    0.007 sec
Total time needed                          ...    0.021 sec

-------------------
DFT GRID GENERATION
-------------------

General Integration Accuracy     IntAcc      ... 4.959
Radial Grid Type                 RadialGrid  ... OptM3 with GC (2021)
Angular Grid (max. ang.)         AngularGrid ... 6 (Lebedev-590)
Angular grid pruning method      GridPruning ... 4 (adaptive)
Weight generation scheme         WeightScheme... mBecke (2022)
Basis function cutoff            BFCut       ... 1.0000e-11
Integration weight cutoff        WCut        ... 1.0000e-14
Partially contracted basis set               ... off
Rotationally invariant grid construction     ... off
Angular grids for H and He will be reduced by one unit
Diffuse basis detected: some atoms will have their outermost
                        angular grid increased by 1.

Total number of grid points                  ...   403242
Total number of batches                      ...     6319
Average number of points per batch           ...       63
Average number of grid points per atom       ...    11521
Initializing property integral containers    ... done (  0.0 sec)

SHARK setup successfully completed in   3.0 seconds

Maximum memory used throughout the entire STARTUP-calculation: 92.8 MB


           ************************************************************
           *        Program running with 16 parallel MPI-processes    *
           *              working on a common directory               *
           ************************************************************
-------------------------------------------------------------------------------
                                 ORCA GUESS
                   Start orbitals & Density for SCF / CASSCF
-------------------------------------------------------------------------------

------------
SCF SETTINGS
------------
Hamiltonian:
 Density Functional     Method          .... DFT(GTOs)
 Exchange Functional    Exchange        .... B973C
 Correlation Functional Correlation     .... B973C
 Gradients option       PostSCFGGA      .... off
 RI-approximation to the Coulomb term is turned on
   Number of AuxJ basis functions       .... 663


General Settings:
 Integral files         IntName         .... m1_01_Vitamin_B1-GFN2_000-B97-3C-TZ
 Hartree-Fock type      HFTyp           .... RHF
 Total Charge           Charge          ....    1
 Multiplicity           Mult            ....    1
 Number of Electrons    NEL             ....  140
 Basis Dimension        Dim             ....  401
 Nuclear Repulsion      ENuc            ....   1472.5977679409 Eh

Convergence Acceleration:
 AO-DIIS                CNVDIIS         .... on
   Start iteration      DIISMaxIt       ....    12
   Startup error        DIISStart       ....  0.200000
   # of expansion vecs  DIISMaxEq       ....     5
   Bias factor          DIISBfac        ....   1.050
   Max. coefficient     DIISMaxC        ....  10.000
 MO-DIIS                CNVKDIIS        .... off
 Trust-Rad. Augm. Hess. CNVTRAH         .... off
 SOSCF                  CNVSOSCF        .... on
   Start iteration      SOSCFMaxIt      ....   150
   Startup grad/error   SOSCFStart      ....  0.003300
   Hessian update       SOSCFHessUp     .... L-BFGS
 Level Shifting         CNVShift        .... on
   Level shift para.    LevelShift      ....    0.2500
   Turn off err/grad.   ShiftErr        ....    0.0010
 Zerner damping         CNVZerner       .... off
 Static damping         CNVDamp         .... on
   Fraction old density DampFac         ....    0.7000
   Max. Damping (<1)    DampMax         ....    0.9800
   Min. Damping (>=0)   DampMin         ....    0.0000
   Turn off err/grad.   DampErr         ....    0.1000

SCF Procedure:
 Maximum # iterations   MaxIter         ....   800
 SCF integral mode      SCFMode         .... Direct
   Integral package                     .... SHARK and LIBINT hybrid scheme
 Reset frequency        DirectResetFreq ....    20
 Integral Threshold     Thresh          ....  2.500e-11 Eh
 Primitive CutOff       TCut            ....  2.500e-12 Eh

Convergence Tolerance:
 Convergence Check Mode ConvCheckMode   .... Total+1el-Energy
 Convergence forced     ConvForced      .... 0
 Energy Change          TolE            ....  1.000e-08 Eh
 1-El. energy change                    ....  1.000e-05 Eh
 Orbital Gradient       TolG            ....  1.000e-05
 Orbital Rotation angle TolX            ....  1.000e-05
 DIIS Error             TolErr          ....  5.000e-07

--------------------------------
INITIAL GUESS: MINIMAL BASIS EHT
--------------------------------
The minimal basis has 111 functions
EHT matrix was diagonalized
Basis set overlap was calculated now projecting the orbitals
Using GuessMode=FMatrix for the initial guess
C*T matrix was formed
Effective Fockian was calculated
Effective Fockian was diagonalized
Initial density was built
                      ------------------
                      INITIAL GUESS DONE
                      ------------------
             **** ENERGY FILE WAS UPDATED (m1_01_Vitamin_B1-GFN2_000-B97-3C-TZ.en.tmp) ****
Finished Guess after   0.2 sec
Maximum memory used throughout the entire GUESS-calculation: 32.0 MB


           ************************************************************
           *        Program running with 16 parallel MPI-processes    *
           *              working on a common directory               *
           ************************************************************

-------------------------------------------------------------------------------------------
                                      ORCA LEAN-SCF
                              memory conserving SCF solver
-------------------------------------------------------------------------------------------

----------------------------------------D-I-I-S--------------------------------------------
Iteration    Energy (Eh)           Delta-E    RMSDP     MaxDP     DIISErr   Damp  Time(sec)
-------------------------------------------------------------------------------------------
               ***  Starting incremental Fock matrix formation  ***
    1    -1156.3798116397672402     0.00e+00  4.95e-03  1.71e-01  8.23e-01  0.700   0.5
Warning: op=0 Small HOMO/LUMO gap (  -0.026) - skipping pre-diagonalization
         Will do a full diagonalization
    2    -1157.3347023261451341    -9.55e-01  4.60e-03  2.23e-01  5.61e-01  0.700   0.6
    3    -1157.8729762282152933    -5.38e-01  2.57e-03  1.18e-01  3.80e-01  0.700   0.5
    4    -1158.2361114561838349    -3.63e-01  1.70e-03  5.99e-02  2.57e-01  0.700   0.5
                               ***Turning on AO-DIIS***
    5    -1158.4960531913668547    -2.60e-01  1.35e-03  5.32e-02  1.73e-01  0.700   0.5
    6    -1158.6777271277703676    -1.82e-01  9.68e-04  4.45e-02  1.21e-01  0.700   0.5
    7    -1158.8052750312274384    -1.28e-01  6.91e-04  3.26e-02  8.48e-02  0.700   0.5
    8    -1158.8949408878063423    -8.97e-02  1.68e-03  7.41e-02  5.99e-02  0.000   0.5
    9    -1159.1040680046046418    -2.09e-01  2.08e-04  1.27e-02  6.44e-03  0.000   0.5
   10    -1159.1044519421668610    -3.84e-04  8.37e-05  3.31e-03  4.47e-03  0.000   0.5
                              *** Initializing SOSCF ***
---------------------------------------S-O-S-C-F--------------------------------------
Iteration    Energy (Eh)           Delta-E    RMSDP     MaxDP     MaxGrad    Time(sec)
--------------------------------------------------------------------------------------
   11    -1159.1046144573263064    -1.63e-04  5.93e-05  1.91e-03  9.19e-04     0.5
               *** Restarting incremental Fock matrix formation ***
   12    -1159.1046579041301356    -4.34e-05  1.19e-04  3.23e-03  1.31e-03     0.5
   13    -1159.1046979997984181    -4.01e-05  8.38e-05  2.32e-03  2.99e-04     0.5
   14    -1159.1046873056368440     1.07e-05  4.97e-05  1.64e-03  4.27e-04     0.5
   15    -1159.1047042246007095    -1.69e-05  1.20e-05  5.06e-04  5.32e-05     0.5
   16    -1159.1047035614931247     6.63e-07  7.97e-06  3.80e-04  1.13e-04     0.5
   17    -1159.1047044387207734    -8.77e-07  3.48e-06  1.75e-04  1.14e-05     0.5
   18    -1159.1047044160884525     2.26e-08  2.46e-06  1.50e-04  2.90e-05     0.4
   19    -1159.1047044651843407    -4.91e-08  2.20e-06  1.55e-04  2.00e-06     0.4
                  *** Gradient check signals convergence ***

               *****************************************************
               *                     SUCCESS                       *
               *           SCF CONVERGED AFTER  19 CYCLES          *
               *****************************************************

             **** ENERGY FILE WAS UPDATED (m1_01_Vitamin_B1-GFN2_000-B97-3C-TZ.en.tmp) ****

----------------
TOTAL SCF ENERGY
----------------

Total Energy       :      -1159.10470446518434 Eh          -31540.84251 eV

Components:
Nuclear Repulsion  :       1472.59776794092727 Eh           40071.42246 eV
Electronic Energy  :      -2631.70247240611116 Eh          -71612.26497 eV
One Electron Energy:      -4490.07970208799816 Eh         -122181.28027 eV
Two Electron Energy:       1858.37722968188677 Eh           50569.01530 eV

Virial components:
Potential Energy   :      -2314.92583808786230 Eh          -62992.33452 eV
Kinetic Energy     :       1155.82113362267796 Eh           31451.49201 eV
Virial Ratio       :          2.00284089877489

DFT components:
N(Alpha)           :       70.000004075617 electrons
N(Beta)            :       70.000004075617 electrons
N(Total)           :      140.000008151233 electrons
E(XC)              :     -132.657333803081 Eh       

---------------
SCF CONVERGENCE
---------------

  Last Energy change         ...    4.9096e-08  Tolerance :   1.0000e-08
  Last MAX-Density change    ...    1.5469e-04  Tolerance :   1.0000e-07
  Last RMS-Density change    ...    2.2043e-06  Tolerance :   5.0000e-09
  Last DIIS Error            ...    9.1908e-04  Tolerance :   5.0000e-07
  Last Orbital Gradient      ...    1.9991e-06  Tolerance :   1.0000e-05
  Last Orbital Rotation      ...    9.2446e-06  Tolerance :   1.0000e-05


----------------
ORBITAL ENERGIES
----------------

  NO   OCC          E(Eh)            E(eV) 
   0   2.0000     -88.232762     -2400.9355 
   1   2.0000     -18.894237      -514.1383 
   2   2.0000     -14.238101      -387.4384 
   3   2.0000     -14.124910      -384.3583 
   4   2.0000     -14.082798      -383.2124 
   5   2.0000     -14.076970      -383.0538 
   6   2.0000     -10.126145      -275.5464 
   7   2.0000     -10.101869      -274.8858 
   8   2.0000     -10.100751      -274.8554 
   9   2.0000     -10.091828      -274.6126 
  10   2.0000     -10.088652      -274.5262 
  11   2.0000     -10.077486      -274.2223 
  12   2.0000     -10.059520      -273.7335 
  13   2.0000     -10.049044      -273.4484 
  14   2.0000     -10.047467      -273.4055 
  15   2.0000     -10.039371      -273.1852 
  16   2.0000     -10.031645      -272.9749 
  17   2.0000      -9.966853      -271.2119 
  18   2.0000      -7.921752      -215.5618 
  19   2.0000      -5.952303      -161.9704 
  20   2.0000      -5.946167      -161.8034 
  21   2.0000      -5.944334      -161.7536 
  22   2.0000      -1.115306       -30.3490 
  23   2.0000      -1.096325       -29.8325 
  24   2.0000      -1.030149       -28.0318 
  25   2.0000      -0.975423       -26.5426 
  26   2.0000      -0.948443       -25.8085 
  27   2.0000      -0.906329       -24.6625 
  28   2.0000      -0.894501       -24.3406 
  29   2.0000      -0.867782       -23.6136 
  30   2.0000      -0.839120       -22.8336 
  31   2.0000      -0.806670       -21.9506 
  32   2.0000      -0.785283       -21.3686 
  33   2.0000      -0.751695       -20.4547 
  34   2.0000      -0.743543       -20.2328 
  35   2.0000      -0.710691       -19.3389 
  36   2.0000      -0.698746       -19.0139 
  37   2.0000      -0.681133       -18.5346 
  38   2.0000      -0.667372       -18.1601 
  39   2.0000      -0.637620       -17.3505 
  40   2.0000      -0.625259       -17.0142 
  41   2.0000      -0.605495       -16.4764 
  42   2.0000      -0.600825       -16.3493 
  43   2.0000      -0.578733       -15.7481 
  44   2.0000      -0.577077       -15.7031 
  45   2.0000      -0.561399       -15.2764 
  46   2.0000      -0.559603       -15.2276 
  47   2.0000      -0.551563       -15.0088 
  48   2.0000      -0.531322       -14.4580 
  49   2.0000      -0.525484       -14.2992 
  50   2.0000      -0.519035       -14.1237 
  51   2.0000      -0.514424       -13.9982 
  52   2.0000      -0.507004       -13.7963 
  53   2.0000      -0.503174       -13.6921 
  54   2.0000      -0.499008       -13.5787 
  55   2.0000      -0.496225       -13.5030 
  56   2.0000      -0.481195       -13.0940 
  57   2.0000      -0.476552       -12.9676 
  58   2.0000      -0.457578       -12.4513 
  59   2.0000      -0.451717       -12.2918 
  60   2.0000      -0.433092       -11.7850 
  61   2.0000      -0.431312       -11.7366 
  62   2.0000      -0.419080       -11.4037 
  63   2.0000      -0.415846       -11.3157 
  64   2.0000      -0.384243       -10.4558 
  65   2.0000      -0.370345       -10.0776 
  66   2.0000      -0.362553        -9.8656 
  67   2.0000      -0.357284        -9.7222 
  68   2.0000      -0.322971        -8.7885 
  69   2.0000      -0.308199        -8.3865 
  70   0.0000      -0.229951        -6.2573 
  71   0.0000      -0.171833        -4.6758 
  72   0.0000      -0.163998        -4.4626 
  73   0.0000      -0.148558        -4.0425 
  74   0.0000      -0.144458        -3.9309 
  75   0.0000      -0.112798        -3.0694 
  76   0.0000      -0.110272        -3.0006 
  77   0.0000      -0.095300        -2.5932 
  78   0.0000      -0.083841        -2.2814 
  79   0.0000      -0.071950        -1.9578 
  80   0.0000      -0.063116        -1.7175 
*Only the first 10 virtual orbitals were printed.

                    ********************************
                    * MULLIKEN POPULATION ANALYSIS *
                    ********************************

-----------------------
MULLIKEN ATOMIC CHARGES
-----------------------
   0 S :    0.336150
   1 O :   -0.589305
   2 N :    0.085206
   3 N :   -0.158496
   4 N :   -0.086808
   5 N :   -0.641499
   6 C :   -0.027194
   7 C :   -0.537974
   8 C :   -0.028261
   9 C :   -0.245520
  10 C :   -0.049748
  11 C :   -0.154229
  12 C :   -0.518057
  13 C :   -0.273495
  14 C :    0.253338
  15 C :   -0.105153
  16 C :    0.097006
  17 C :   -0.549439
  18 H :    0.254885
  19 H :    0.242154
  20 H :    0.217461
  21 H :    0.208205
  22 H :    0.262942
  23 H :    0.211773
  24 H :    0.227060
  25 H :    0.197766
  26 H :    0.225650
  27 H :    0.213111
  28 H :    0.172340
  29 H :    0.346041
  30 H :    0.368182
  31 H :    0.454246
  32 H :    0.203525
  33 H :    0.193405
  34 H :    0.194730
Sum of atomic charges:    1.0000000

--------------------------------
MULLIKEN REDUCED ORBITAL CHARGES
--------------------------------
  0 S s       :     5.894148  s :     5.894148
      pz      :     2.952127  p :     9.631641
      px      :     3.272003
      py      :     3.407511
      dz2     :     0.056817  d :     0.138061
      dxz     :     0.018355
      dyz     :     0.024352
      dx2y2   :     0.017006
      dxy     :     0.021531

  1 O s       :     3.812865  s :     3.812865
      pz      :     1.794278  p :     4.747775
      px      :     1.681272
      py      :     1.272225
      dz2     :     0.004140  d :     0.028665
      dxz     :     0.003899
      dyz     :     0.001232
      dx2y2   :     0.003543
      dxy     :     0.015851

  2 N s       :     3.269677  s :     3.269677
      pz      :     1.082640  p :     3.584547
      px      :     1.213503
      py      :     1.288404
      dz2     :     0.014957  d :     0.060570
      dxz     :     0.015543
      dyz     :     0.011307
      dx2y2   :     0.010710
      dxy     :     0.008052

  3 N s       :     3.474738  s :     3.474738
      pz      :     1.282085  p :     3.638785
      px      :     1.240493
      py      :     1.116208
      dz2     :     0.006524  d :     0.044972
      dxz     :     0.006353
      dyz     :     0.009114
      dx2y2   :     0.012635
      dxy     :     0.010347

  4 N s       :     3.481528  s :     3.481528
      pz      :     1.128504  p :     3.559131
      px      :     1.009533
      py      :     1.421093
      dz2     :     0.006180  d :     0.046149
      dxz     :     0.006855
      dyz     :     0.009576
      dx2y2   :     0.007934
      dxy     :     0.015604

  5 N s       :     3.456183  s :     3.456183
      pz      :     1.572625  p :     4.151749
      px      :     1.296015
      py      :     1.283110
      dz2     :     0.004715  d :     0.033567
      dxz     :     0.006347
      dyz     :     0.004748
      dx2y2   :     0.009552
      dxy     :     0.008205

  6 C s       :     3.127380  s :     3.127380
      pz      :     0.900314  p :     2.839323
      px      :     0.887453
      py      :     1.051556
      dz2     :     0.012220  d :     0.060491
      dxz     :     0.019099
      dyz     :     0.012902
      dx2y2   :     0.009002
      dxy     :     0.007269

  7 C s       :     3.418271  s :     3.418271
      pz      :     0.847184  p :     3.063737
      px      :     1.115753
      py      :     1.100800
      dz2     :     0.014041  d :     0.055966
      dxz     :     0.014279
      dyz     :     0.007985
      dx2y2   :     0.013243
      dxy     :     0.006418

  8 C s       :     3.150357  s :     3.150357
      pz      :     0.975089  p :     2.832055
      px      :     0.820043
      py      :     1.036923
      dz2     :     0.013276  d :     0.045849
      dxz     :     0.010831
      dyz     :     0.010104
      dx2y2   :     0.005616
      dxy     :     0.006022

  9 C s       :     3.154989  s :     3.154989
      pz      :     0.902057  p :     3.046502
      px      :     0.978257
      py      :     1.166188
      dz2     :     0.013562  d :     0.044029
      dxz     :     0.009771
      dyz     :     0.004197
      dx2y2   :     0.003931
      dxy     :     0.012568

 10 C s       :     3.125289  s :     3.125289
      pz      :     1.085024  p :     2.880480
      px      :     0.863101
      py      :     0.932355
      dz2     :     0.005376  d :     0.043978
      dxz     :     0.006986
      dyz     :     0.008106
      dx2y2   :     0.011579
      dxy     :     0.011931

 11 C s       :     3.187085  s :     3.187085
      pz      :     0.991511  p :     2.915263
      px      :     0.988037
      py      :     0.935715
      dz2     :     0.010940  d :     0.051882
      dxz     :     0.013396
      dyz     :     0.008312
      dx2y2   :     0.010118
      dxy     :     0.009115

 12 C s       :     3.260417  s :     3.260417
      pz      :     1.160677  p :     3.220199
      px      :     1.007572
      py      :     1.051950
      dz2     :     0.007215  d :     0.037440
      dxz     :     0.009569
      dyz     :     0.003706
      dx2y2   :     0.007597
      dxy     :     0.009354

 13 C s       :     3.310779  s :     3.310779
      pz      :     1.103235  p :     2.898481
      px      :     0.910431
      py      :     0.884815
      dz2     :     0.014216  d :     0.064235
      dxz     :     0.013420
      dyz     :     0.006596
      dx2y2   :     0.011941
      dxy     :     0.018061

 14 C s       :     3.012212  s :     3.012212
      pz      :     0.852043  p :     2.649706
      px      :     0.951720
      py      :     0.845943
      dz2     :     0.011512  d :     0.084744
      dxz     :     0.011826
      dyz     :     0.017690
      dx2y2   :     0.024889
      dxy     :     0.018826

 15 C s       :     3.184878  s :     3.184878
      pz      :     0.948980  p :     2.859430
      px      :     0.988412
      py      :     0.922038
      dz2     :     0.005030  d :     0.060844
      dxz     :     0.011206
      dyz     :     0.010634
      dx2y2   :     0.016786
      dxy     :     0.017189

 16 C s       :     3.149777  s :     3.149777
      pz      :     0.887706  p :     2.668982
      px      :     0.864219
      py      :     0.917057
      dz2     :     0.010522  d :     0.084236
      dxz     :     0.010527
      dyz     :     0.016986
      dx2y2   :     0.022709
      dxy     :     0.023492

 17 C s       :     3.305628  s :     3.305628
      pz      :     1.119674  p :     3.207588
      px      :     0.995566
      py      :     1.092348
      dz2     :     0.005921  d :     0.036223
      dxz     :     0.004770
      dyz     :     0.010162
      dx2y2   :     0.004071
      dxy     :     0.011299

 18 H s       :     0.745115  s :     0.745115

 19 H s       :     0.757846  s :     0.757846

 20 H s       :     0.782539  s :     0.782539

 21 H s       :     0.791795  s :     0.791795

 22 H s       :     0.737058  s :     0.737058

 23 H s       :     0.788227  s :     0.788227

 24 H s       :     0.772940  s :     0.772940

 25 H s       :     0.802234  s :     0.802234

 26 H s       :     0.774350  s :     0.774350

 27 H s       :     0.786889  s :     0.786889

 28 H s       :     0.827660  s :     0.827660

 29 H s       :     0.653959  s :     0.653959

 30 H s       :     0.631818  s :     0.631818

 31 H s       :     0.545754  s :     0.545754

 32 H s       :     0.796475  s :     0.796475

 33 H s       :     0.806595  s :     0.806595

 34 H s       :     0.805270  s :     0.805270



                     *******************************
                     * LOEWDIN POPULATION ANALYSIS *
                     *******************************

----------------------
LOEWDIN ATOMIC CHARGES
----------------------
   0 S :    0.856621
   1 O :   -0.838637
   2 N :   -0.044355
   3 N :   -0.189243
   4 N :   -0.191073
   5 N :   -0.413926
   6 C :   -0.017763
   7 C :   -0.159286
   8 C :   -0.221968
   9 C :   -0.264036
  10 C :   -0.167055
  11 C :   -0.268432
  12 C :   -0.393520
  13 C :    0.020340
  14 C :    0.095459
  15 C :   -0.038917
  16 C :    0.078929
  17 C :   -0.410250
  18 H :    0.189250
  19 H :    0.183482
  20 H :    0.186781
  21 H :    0.188012
  22 H :    0.201176
  23 H :    0.185862
  24 H :    0.197269
  25 H :    0.185244
  26 H :    0.188859
  27 H :    0.194626
  28 H :    0.162761
  29 H :    0.286327
  30 H :    0.302445
  31 H :    0.372040
  32 H :    0.188517
  33 H :    0.178211
  34 H :    0.176251

-------------------------------
LOEWDIN REDUCED ORBITAL CHARGES
-------------------------------
  0 S s       :     5.324396  s :     5.324396
      pz      :     3.001232  p :     9.654057
      px      :     3.266653
      py      :     3.386172
      dz2     :     0.075093  d :     0.164926
      dxz     :     0.019790
      dyz     :     0.027195
      dx2y2   :     0.017635
      dxy     :     0.025212

  1 O s       :     3.554146  s :     3.554146
      pz      :     1.797247  p :     4.859643
      px      :     1.698814
      py      :     1.363583
      dz2     :     0.118680  d :     0.424848
      dxz     :     0.060298
      dyz     :     0.067618
      dx2y2   :     0.094809
      dxy     :     0.083444

  2 N s       :     3.065266  s :     3.065266
      pz      :     1.237609  p :     3.858526
      px      :     1.288376
      py      :     1.332540
      dz2     :     0.029940  d :     0.120563
      dxz     :     0.031235
      dyz     :     0.022249
      dx2y2   :     0.020016
      dxy     :     0.017122

  3 N s       :     3.206217  s :     3.206217
      pz      :     1.311541  p :     3.900023
      px      :     1.345351
      py      :     1.243130
      dz2     :     0.010211  d :     0.083003
      dxz     :     0.010344
      dyz     :     0.016923
      dx2y2   :     0.024570
      dxy     :     0.020956

  4 N s       :     3.220197  s :     3.220197
      pz      :     1.197181  p :     3.884594
      px      :     1.175445
      py      :     1.511969
      dz2     :     0.011032  d :     0.086282
      dxz     :     0.016525
      dyz     :     0.014857
      dx2y2   :     0.015019
      dxy     :     0.028849

  5 N s       :     3.189351  s :     3.189351
      pz      :     1.541610  p :     4.168801
      px      :     1.303728
      py      :     1.323463
      dz2     :     0.007079  d :     0.055775
      dxz     :     0.008902
      dyz     :     0.008537
      dx2y2   :     0.016507
      dxy     :     0.014750

  6 C s       :     2.837186  s :     2.837186
      pz      :     0.982590  p :     3.052419
      px      :     1.029540
      py      :     1.040290
      dz2     :     0.028135  d :     0.128158
      dxz     :     0.042206
      dyz     :     0.027307
      dx2y2   :     0.015803
      dxy     :     0.014707

  7 C s       :     2.904894  s :     2.904894
      pz      :     0.922406  p :     3.151375
      px      :     1.114956
      py      :     1.114013
      dz2     :     0.028110  d :     0.103018
      dxz     :     0.026551
      dyz     :     0.015422
      dx2y2   :     0.022085
      dxy     :     0.010850

  8 C s       :     2.921714  s :     2.921714
      pz      :     1.096895  p :     3.205333
      px      :     1.050116
      py      :     1.058322
      dz2     :     0.027915  d :     0.094921
      dxz     :     0.021880
      dyz     :     0.019792
      dx2y2   :     0.011027
      dxy     :     0.014307

  9 C s       :     2.927159  s :     2.927159
      pz      :     1.032455  p :     3.258363
      px      :     1.088343
      py      :     1.137565
      dz2     :     0.024978  d :     0.078514
      dxz     :     0.019927
      dyz     :     0.007556
      dx2y2   :     0.006248
      dxy     :     0.019804

 10 C s       :     2.860630  s :     2.860630
      pz      :     1.081065  p :     3.212953
      px      :     1.041082
      py      :     1.090806
      dz2     :     0.010578  d :     0.093472
      dxz     :     0.014647
      dyz     :     0.016929
      dx2y2   :     0.025428
      dxy     :     0.025890

 11 C s       :     2.970079  s :     2.970079
      pz      :     1.134347  p :     3.189943
      px      :     1.031955
      py      :     1.023641
      dz2     :     0.026101  d :     0.108411
      dxz     :     0.025026
      dyz     :     0.017867
      dx2y2   :     0.018519
      dxy     :     0.020897

 12 C s       :     2.963351  s :     2.963351
      pz      :     1.168793  p :     3.368922
      px      :     1.087109
      py      :     1.113020
      dz2     :     0.011342  d :     0.061247
      dxz     :     0.014994
      dyz     :     0.005389
      dx2y2   :     0.013148
      dxy     :     0.016374

 13 C s       :     2.869889  s :     2.869889
      pz      :     1.061761  p :     2.980875
      px      :     0.974982
      py      :     0.944132
      dz2     :     0.024665  d :     0.128896
      dxz     :     0.028136
      dyz     :     0.013014
      dx2y2   :     0.025122
      dxy     :     0.037959

 14 C s       :     2.807801  s :     2.807801
      pz      :     0.949821  p :     2.916834
      px      :     1.006748
      py      :     0.960264
      dz2     :     0.022993  d :     0.179906
      dxz     :     0.025751
      dyz     :     0.035184
      dx2y2   :     0.055987
      dxy     :     0.039992

 15 C s       :     2.880739  s :     2.880739
      pz      :     0.965948  p :     3.033915
      px      :     1.017329
      py      :     1.050637
      dz2     :     0.010949  d :     0.124263
      dxz     :     0.019692
      dyz     :     0.019837
      dx2y2   :     0.035516
      dxy     :     0.038268

 16 C s       :     2.827112  s :     2.827112
      pz      :     0.899808  p :     2.914565
      px      :     1.001667
      py      :     1.013090
      dz2     :     0.019524  d :     0.179393
      dxz     :     0.021385
      dyz     :     0.038862
      dx2y2   :     0.048935
      dxy     :     0.050686

 17 C s       :     2.980898  s :     2.980898
      pz      :     1.148570  p :     3.370694
      px      :     1.087874
      py      :     1.134250
      dz2     :     0.009198  d :     0.058659
      dxz     :     0.007932
      dyz     :     0.015623
      dx2y2   :     0.007059
      dxy     :     0.018846

 18 H s       :     0.810750  s :     0.810750

 19 H s       :     0.816518  s :     0.816518

 20 H s       :     0.813219  s :     0.813219

 21 H s       :     0.811988  s :     0.811988

 22 H s       :     0.798824  s :     0.798824

 23 H s       :     0.814138  s :     0.814138

 24 H s       :     0.802731  s :     0.802731

 25 H s       :     0.814756  s :     0.814756

 26 H s       :     0.811141  s :     0.811141

 27 H s       :     0.805374  s :     0.805374

 28 H s       :     0.837239  s :     0.837239

 29 H s       :     0.713673  s :     0.713673

 30 H s       :     0.697555  s :     0.697555

 31 H s       :     0.627960  s :     0.627960

 32 H s       :     0.811483  s :     0.811483

 33 H s       :     0.821789  s :     0.821789

 34 H s       :     0.823749  s :     0.823749



                      *****************************
                      * MAYER POPULATION ANALYSIS *
                      *****************************

  NA   - Mulliken gross atomic population
  ZA   - Total nuclear charge
  QA   - Mulliken gross atomic charge
  VA   - Mayer's total valence
  BVA  - Mayer's bonded valence
  FA   - Mayer's free valence

  ATOM       NA         ZA         QA         VA         BVA        FA
  0 S     15.6639    16.0000     0.3361     2.7527     2.7527     0.0000
  1 O      8.5893     8.0000    -0.5893     1.7385     1.7385     0.0000
  2 N      6.9148     7.0000     0.0852     3.3672     3.3672     0.0000
  3 N      7.1585     7.0000    -0.1585     3.1569     3.1569    -0.0000
  4 N      7.0868     7.0000    -0.0868     3.1246     3.1246     0.0000
  5 N      7.6415     7.0000    -0.6415     2.9914     2.9914    -0.0000
  6 C      6.0272     6.0000    -0.0272     4.1707     4.1707     0.0000
  7 C      6.5380     6.0000    -0.5380     3.5918     3.5918     0.0000
  8 C      6.0283     6.0000    -0.0283     3.4956     3.4956     0.0000
  9 C      6.2455     6.0000    -0.2455     3.3728     3.3728     0.0000
 10 C      6.0497     6.0000    -0.0497     3.4345     3.4345     0.0000
 11 C      6.1542     6.0000    -0.1542     3.8268     3.8268    -0.0000
 12 C      6.5181     6.0000    -0.5181     3.8116     3.8116     0.0000
 13 C      6.2735     6.0000    -0.2735     3.7234     3.7234    -0.0000
 14 C      5.7467     6.0000     0.2533     3.9820     3.9820    -0.0000
 15 C      6.1052     6.0000    -0.1052     3.9818     3.9818     0.0000
 16 C      5.9030     6.0000     0.0970     3.9584     3.9584    -0.0000
 17 C      6.5494     6.0000    -0.5494     3.7136     3.7136    -0.0000
 18 H      0.7451     1.0000     0.2549     0.8935     0.8935     0.0000
 19 H      0.7578     1.0000     0.2422     0.9211     0.9211     0.0000
 20 H      0.7825     1.0000     0.2175     0.9482     0.9482     0.0000
 21 H      0.7918     1.0000     0.2082     0.9540     0.9540     0.0000
 22 H      0.7371     1.0000     0.2629     0.9062     0.9062     0.0000
 23 H      0.7882     1.0000     0.2118     0.9375     0.9375     0.0000
 24 H      0.7729     1.0000     0.2271     0.9393     0.9393     0.0000
 25 H      0.8022     1.0000     0.1978     0.9517     0.9517     0.0000
 26 H      0.7743     1.0000     0.2257     0.9302     0.9302     0.0000
 27 H      0.7869     1.0000     0.2131     0.9327     0.9327    -0.0000
 28 H      0.8277     1.0000     0.1723     0.9403     0.9403     0.0000
 29 H      0.6540     1.0000     0.3460     0.8569     0.8569     0.0000
 30 H      0.6318     1.0000     0.3682     0.8639     0.8639     0.0000
 31 H      0.5458     1.0000     0.4542     0.7664     0.7664    -0.0000
 32 H      0.7965     1.0000     0.2035     0.9452     0.9452    -0.0000
 33 H      0.8066     1.0000     0.1934     0.9520     0.9520    -0.0000
 34 H      0.8053     1.0000     0.1947     0.9527     0.9527    -0.0000

  Mayer bond orders larger than 0.100000
B(  0-S ,  8-C ) :   1.2044 B(  0-S , 11-C ) :   1.3282 B(  1-O ,  9-C ) :  -0.1038 
B(  1-O , 13-C ) :   0.9439 B(  1-O , 31-H ) :   0.7569 B(  2-N ,  6-C ) :   1.2415 
B(  2-N ,  7-C ) :   0.8339 B(  2-N , 11-C ) :   1.3725 B(  3-N , 14-C ) :   1.5181 
B(  3-N , 16-C ) :   1.5262 B(  4-N , 15-C ) :   1.6186 B(  4-N , 16-C ) :   1.4539 
B(  5-N , 14-C ) :   1.1871 B(  5-N , 29-H ) :   0.8335 B(  5-N , 30-H ) :   0.8095 
B(  6-C ,  8-C ) :   1.6097 B(  6-C , 12-C ) :   1.0206 B(  7-C , 10-C ) :   0.7150 
[...]
 39:    745.85   0.005208   26.32  0.002179  ( 0.020523 -0.040473 -0.010944)
 40:    754.23   0.001608    8.13  0.000665  (-0.023431  0.010279  0.003281)
 41:    771.65   0.002604   13.16  0.001053  (-0.022981 -0.016025 -0.016376)
 42:    799.86   0.000637    3.22  0.000249  ( 0.009486  0.001917  0.012444)
 43:    802.88   0.000623    3.15  0.000242  ( 0.000198 -0.005057 -0.014711)
 44:    885.73   0.002953   14.92  0.001040  (-0.022804 -0.010032  0.020486)
 45:    898.44   0.001053    5.32  0.000366  ( 0.003816  0.010607  0.015455)
 46:    920.02   0.000888    4.49  0.000301  (-0.015933 -0.006461  0.002361)
 47:    931.10   0.000215    1.09  0.000072  ( 0.002384 -0.002107 -0.007876)
 48:    958.61   0.001271    6.42  0.000414  (-0.011603  0.016590  0.001937)
 49:    985.98   0.001155    5.84  0.000366  ( 0.004962  0.013285 -0.012828)
 50:   1008.10   0.005687   28.74  0.001760  (-0.030938 -0.028340 -0.000022)
 51:   1016.83   0.003624   18.32  0.001112  (-0.026806 -0.010528  0.016819)
 52:   1042.09   0.000853    4.31  0.000256  (-0.000604  0.009170  0.013081)
 53:   1052.99   0.001047    5.29  0.000310  (-0.015639 -0.006136  0.005289)
 54:   1056.44   0.003159   15.96  0.000933  ( 0.008647 -0.017973 -0.023139)
 55:   1065.73   0.008927   45.11  0.002614  ( 0.035612  0.033592 -0.014738)
 56:   1088.95   0.001932    9.76  0.000554  (-0.017925 -0.012082  0.009291)
 57:   1118.79   0.001130    5.71  0.000315  ( 0.003045 -0.017131  0.003537)
 58:   1175.24   0.006530   33.00  0.001734  ( 0.030188  0.019020 -0.021465)
 59:   1185.49   0.002512   12.70  0.000661  ( 0.004247 -0.007242 -0.024306)
 60:   1189.78   0.000567    2.87  0.000149  (-0.001457  0.006692  0.010093)
 61:   1226.27   0.000736    3.72  0.000187  ( 0.006915  0.007828 -0.008848)
 62:   1268.79   0.000906    4.58  0.000223  ( 0.013876 -0.000482  0.005484)
 63:   1272.06   0.003768   19.04  0.000924  (-0.028012  0.000618  0.011805)
 64:   1277.81   0.009440   47.71  0.002306  ( 0.035464 -0.006136 -0.031783)
 65:   1307.33   0.001063    5.37  0.000254  (-0.015419  0.000154  0.004007)
 66:   1326.41   0.001289    6.51  0.000303  ( 0.005382 -0.002726 -0.016335)
 67:   1351.34   0.000187    0.94  0.000043  (-0.004182 -0.004736  0.001783)
 68:   1383.69   0.002543   12.85  0.000573  (-0.012275  0.017467  0.010849)
 69:   1385.68   0.002065   10.44  0.000465  ( 0.013052  0.011601  0.012656)
 70:   1398.85   0.005089   25.72  0.001135  (-0.029595 -0.012447  0.010217)
 71:   1403.26   0.000269    1.36  0.000060  (-0.006925 -0.002367  0.002518)
 72:   1407.20   0.001387    7.01  0.000308  (-0.001844  0.016055 -0.006807)
 73:   1425.46   0.001803    9.11  0.000395  ( 0.008587  0.013164  0.012150)
 74:   1433.74   0.010922   55.20  0.002377  ( 0.036199 -0.026535 -0.019049)
 75:   1462.98   0.030650  154.89  0.006538  ( 0.048001 -0.059114 -0.027193)
 76:   1467.79   0.003743   18.91  0.000796  ( 0.010802  0.018833 -0.018011)
 77:   1470.77   0.001407    7.11  0.000299  ( 0.004278 -0.011246  0.012401)
 78:   1483.73   0.017279   87.32  0.003634  (-0.030486  0.049389 -0.016294)
 79:   1487.41   0.001286    6.50  0.000270  ( 0.003143  0.006021  0.014953)
 80:   1488.48   0.006734   34.03  0.001412  (-0.023970 -0.017911  0.022724)
 81:   1493.57   0.007311   36.95  0.001528  (-0.003207  0.006869 -0.038343)
 82:   1506.10   0.000992    5.01  0.000205  ( 0.010567 -0.007466 -0.006170)
 83:   1515.91   0.002887   14.59  0.000594  ( 0.005230 -0.014722  0.018714)
 84:   1570.34   0.044520  224.99  0.008847  ( 0.043517  0.055358 -0.062362)
 85:   1606.68   0.008847   44.71  0.001718  ( 0.040674 -0.007478  0.002823)
 86:   1610.78   0.033244  168.00  0.006441  ( 0.047292 -0.061478 -0.020601)
 87:   1671.30   0.042312  213.83  0.007900  ( 0.015812 -0.069797  0.052715)
 88:   3000.01   0.000865    4.37  0.000090  ( 0.006352 -0.004091  0.005735)
 89:   3013.93   0.000236    1.19  0.000024  (-0.000434  0.002809  0.004043)
 90:   3014.99   0.007003   35.39  0.000725  ( 0.002857  0.015002  0.022173)
 91:   3019.14   0.002659   13.44  0.000275  (-0.015101  0.006703 -0.001344)
 92:   3020.39   0.001354    6.84  0.000140  ( 0.005009 -0.010478  0.002229)
 93:   3063.90   0.000275    1.39  0.000028  (-0.001611 -0.004464 -0.002346)
 94:   3065.22   0.002194   11.09  0.000223  (-0.011022 -0.002468 -0.009785)
 95:   3073.51   0.003262   16.49  0.000331  (-0.003214  0.016111 -0.007831)
 96:   3080.64   0.000486    2.45  0.000049  ( 0.006843 -0.001436 -0.000562)
 97:   3083.39   0.007193   36.35  0.000728  (-0.018658 -0.005921  0.018570)
 98:   3085.92   0.001484    7.50  0.000150  ( 0.011087 -0.001320  0.005038)
 99:   3133.11   0.001007    5.09  0.000100  (-0.004351 -0.007040  0.005641)
100:   3137.50   0.000762    3.85  0.000076  ( 0.003321  0.001837  0.007837)
101:   3225.05   0.003449   17.43  0.000334  ( 0.012828  0.005972  0.011556)
102:   3521.19   0.012584   63.60  0.001115  ( 0.007349  0.021545 -0.024436)
103:   3635.12   0.004834   24.43  0.000415  ( 0.019294 -0.003489 -0.005527)
104:   3745.20   0.012049   60.89  0.001004  (-0.005119 -0.021654  0.022559)

* The epsilon (eps) is given for a Dirac delta lineshape.
** The dipole moment derivative (T) already includes vibrational overlap.

The first frequency considered to be a vibration is 6
The total number of vibrations considered is 99


--------------------------
THERMOCHEMISTRY AT 298.15K
--------------------------

Temperature         ...   298.15 K
Pressure            ...     1.00 atm
Total Mass          ...   265.35 AMU
Quasi RRHO          ...     True
Cut-Off Frequency   ...     1.00 cm^-1

Throughout the following assumptions are being made:
  (1) The electronic state is orbitally nondegenerate
  (2) There are no thermally accessible electronically excited states
  (3) Hindered rotations indicated by low frequency modes are not
      treated as such but are treated as vibrations and this may
      cause some error
  (4) All equations used are the standard statistical mechanics
      equations for an ideal gas
  (5) All vibrations are strictly harmonic

freq.      19.70  E(vib)   ...       0.56 
freq.      23.05  E(vib)   ...       0.56 
freq.      37.68  E(vib)   ...       0.54 
freq.      39.44  E(vib)   ...       0.54 
freq.      50.95  E(vib)   ...       0.52 
freq.      91.66  E(vib)   ...       0.47 
freq.     120.92  E(vib)   ...       0.44 
freq.     130.11  E(vib)   ...       0.43 
freq.     142.75  E(vib)   ...       0.41 
freq.     189.13  E(vib)   ...       0.36 
freq.     204.51  E(vib)   ...       0.35 
freq.     212.02  E(vib)   ...       0.34 
freq.     235.62  E(vib)   ...       0.32 
freq.     269.97  E(vib)   ...       0.29 
freq.     291.96  E(vib)   ...       0.27 
freq.     322.53  E(vib)   ...       0.25 
freq.     324.42  E(vib)   ...       0.25 
freq.     340.91  E(vib)   ...       0.23 
freq.     353.89  E(vib)   ...       0.22 
freq.     403.85  E(vib)   ...       0.19 
freq.     408.41  E(vib)   ...       0.19 
freq.     433.84  E(vib)   ...       0.17 
freq.     471.54  E(vib)   ...       0.15 
freq.     495.24  E(vib)   ...       0.14 
freq.     507.11  E(vib)   ...       0.14 
freq.     525.91  E(vib)   ...       0.13 
freq.     571.84  E(vib)   ...       0.11 
freq.     580.08  E(vib)   ...       0.11 
freq.     602.28  E(vib)   ...       0.10 
freq.     623.92  E(vib)   ...       0.09 
freq.     638.80  E(vib)   ...       0.09 
freq.     655.30  E(vib)   ...       0.08 
freq.     688.17  E(vib)   ...       0.07 
freq.     745.85  E(vib)   ...       0.06 
freq.     754.23  E(vib)   ...       0.06 
freq.     771.65  E(vib)   ...       0.05 
freq.     799.86  E(vib)   ...       0.05 
freq.     802.88  E(vib)   ...       0.05 
freq.     885.73  E(vib)   ...       0.04 
freq.     898.44  E(vib)   ...       0.03 
freq.     920.02  E(vib)   ...       0.03 
freq.     931.10  E(vib)   ...       0.03 
freq.     958.61  E(vib)   ...       0.03 
freq.     985.98  E(vib)   ...       0.02 
freq.    1008.10  E(vib)   ...       0.02 
freq.    1016.83  E(vib)   ...       0.02 
freq.    1042.09  E(vib)   ...       0.02 
freq.    1052.99  E(vib)   ...       0.02 
freq.    1056.44  E(vib)   ...       0.02 
freq.    1065.73  E(vib)   ...       0.02 
freq.    1088.95  E(vib)   ...       0.02 
freq.    1118.79  E(vib)   ...       0.01 
freq.    1175.24  E(vib)   ...       0.01 
freq.    1185.49  E(vib)   ...       0.01 
freq.    1189.78  E(vib)   ...       0.01 
freq.    1226.27  E(vib)   ...       0.01 
freq.    1268.79  E(vib)   ...       0.01 
freq.    1272.06  E(vib)   ...       0.01 
freq.    1277.81  E(vib)   ...       0.01 
freq.    1307.33  E(vib)   ...       0.01 
freq.    1326.41  E(vib)   ...       0.01 
freq.    1351.34  E(vib)   ...       0.01 
freq.    1383.69  E(vib)   ...       0.00 
freq.    1385.68  E(vib)   ...       0.00 
freq.    1398.85  E(vib)   ...       0.00 
freq.    1403.26  E(vib)   ...       0.00 
freq.    1407.20  E(vib)   ...       0.00 
freq.    1425.46  E(vib)   ...       0.00 
freq.    1433.74  E(vib)   ...       0.00 
freq.    1462.98  E(vib)   ...       0.00 
freq.    1467.79  E(vib)   ...       0.00 
freq.    1470.77  E(vib)   ...       0.00 
freq.    1483.73  E(vib)   ...       0.00 
freq.    1487.41  E(vib)   ...       0.00 
freq.    1488.48  E(vib)   ...       0.00 
freq.    1493.57  E(vib)   ...       0.00 
freq.    1506.10  E(vib)   ...       0.00 
freq.    1515.91  E(vib)   ...       0.00 
freq.    1570.34  E(vib)   ...       0.00 
freq.    1606.68  E(vib)   ...       0.00 
freq.    1610.78  E(vib)   ...       0.00 
freq.    1671.30  E(vib)   ...       0.00 
freq.    3000.01  E(vib)   ...       0.00 
freq.    3013.93  E(vib)   ...       0.00 
freq.    3014.99  E(vib)   ...       0.00 
freq.    3019.14  E(vib)   ...       0.00 
freq.    3020.39  E(vib)   ...       0.00 
freq.    3063.90  E(vib)   ...       0.00 
freq.    3065.22  E(vib)   ...       0.00 
freq.    3073.51  E(vib)   ...       0.00 
freq.    3080.64  E(vib)   ...       0.00 
freq.    3083.39  E(vib)   ...       0.00 
freq.    3085.92  E(vib)   ...       0.00 
freq.    3133.11  E(vib)   ...       0.00 
freq.    3137.50  E(vib)   ...       0.00 
freq.    3225.05  E(vib)   ...       0.00 
freq.    3521.19  E(vib)   ...       0.00 
freq.    3635.12  E(vib)   ...       0.00 
freq.    3745.20  E(vib)   ...       0.00 

------------
INNER ENERGY
------------

The inner energy is: U= E(el) + E(ZPE) + E(vib) + E(rot) + E(trans)
    E(el)   - is the total energy from the electronic structure calculation
              = E(kin-el) + E(nuc-el) + E(el-el) + E(nuc-nuc)
    E(ZPE)  - the the zero temperature vibrational energy from the frequency calculation
    E(vib)  - the the finite temperature correction to E(ZPE) due to population
              of excited vibrational states
    E(rot)  - is the rotational thermal energy
    E(trans)- is the translational thermal energy

Summary of contributions to the inner energy U:
Electronic energy                ...  -1159.31572899 Eh
Zero point energy                ...      0.28496284 Eh     178.82 kcal/mol
Thermal vibrational correction   ...      0.01574062 Eh       9.88 kcal/mol
Thermal rotational correction    ...      0.00141627 Eh       0.89 kcal/mol
Thermal translational correction ...      0.00141627 Eh       0.89 kcal/mol
-----------------------------------------------------------------------
Total thermal energy                  -1159.01219300 Eh


Summary of corrections to the electronic energy:
(perhaps to be used in another calculation)
Total thermal correction                  0.01857316 Eh      11.65 kcal/mol
Non-thermal (ZPE) correction              0.28496284 Eh     178.82 kcal/mol
-----------------------------------------------------------------------
Total correction                          0.30353600 Eh     190.47 kcal/mol


--------
ENTHALPY
--------

The enthalpy is H = U + kB*T
                kB is Boltzmann's constant
Total thermal energy              ...  -1159.01219300 Eh 
Thermal Enthalpy correction       ...      0.00094421 Eh       0.59 kcal/mol
-----------------------------------------------------------------------
Total Enthalpy                    ...  -1159.01124879 Eh


Note: Only C1 symmetry has been detected, increase convergence thresholds 
      if your molecule has a higher symmetry. Symmetry factor of 1.0 is   
      used for the rotational entropy correction. 
 

Note: Rotational entropy computed according to Herzberg 
Infrared and Raman Spectra, Chapter V,1, Van Nostrand Reinhold, 1945 
Point Group:  C1, Symmetry Number:   1  
Rotational constants in cm-1:     0.028357     0.006129     0.005927 

Vibrational entropy computed according to the QRRHO of S. Grimme
Chem.Eur.J. 2012 18 9955 using a reference frequency of 100.0 cm-1


-------
ENTROPY
-------

The entropy contributions are T*S = T*(S(el)+S(vib)+S(rot)+S(trans))
     S(el)   - electronic entropy
     S(vib)  - vibrational entropy
     S(rot)  - rotational entropy
     S(trans)- translational entropy
The entropies will be listed as multiplied by the temperature to get
units of energy

Electronic entropy                ...      0.00000000 Eh      0.00 kcal/mol
Vibrational entropy               ...      0.02823759 Eh     17.72 kcal/mol
Rotational entropy                ...      0.01601896 Eh     10.05 kcal/mol
Translational entropy             ...      0.02025338 Eh     12.71 kcal/mol
-----------------------------------------------------------------------
Final entropy term                ...      0.06450994 Eh     40.48 kcal/mol

In case the symmetry of your molecule has not been determined correctly
or in case you have a reason to use a different symmetry number we print 
out the resulting rotational entropy values for sn=1,12:

 non-linear molecules -----------------------------------
|  sn= 1 | S(rot)=       0.01601896 Eh     10.05 kcal/mol|
|  sn= 2 | S(rot)=       0.01536451 Eh      9.64 kcal/mol|
|  sn= 3 | S(rot)=       0.01498167 Eh      9.40 kcal/mol|
|  sn= 4 | S(rot)=       0.01471005 Eh      9.23 kcal/mol|
|  sn= 5 | S(rot)=       0.01449936 Eh      9.10 kcal/mol|
|  sn= 6 | S(rot)=       0.01432722 Eh      8.99 kcal/mol|
|  sn= 7 | S(rot)=       0.01418167 Eh      8.90 kcal/mol|
|  sn= 8 | S(rot)=       0.01405559 Eh      8.82 kcal/mol|
|  sn= 9 | S(rot)=       0.01394439 Eh      8.75 kcal/mol|
|  sn=10 | S(rot)=       0.01384491 Eh      8.69 kcal/mol|
|  sn=11 | S(rot)=       0.01375492 Eh      8.63 kcal/mol|
|  sn=12 | S(rot)=       0.01367276 Eh      8.58 kcal/mol|
 linear molecules ---------------------------------------
|  Dinfh | S(rot)=       0.01016780 Eh      6.38 kcal/mol|
|  Cinfv | S(rot)=       0.01082226 Eh      6.79 kcal/mol|
 --------------------------------------------------------


-------------------
GIBBS FREE ENERGY
-------------------

The Gibbs free energy is G = H - T*S

Total enthalpy                    ...  -1159.01124879 Eh 
Total entropy correction          ...     -0.06450994 Eh    -40.48 kcal/mol
-----------------------------------------------------------------------
Final Gibbs free energy         ...  -1159.07575872 Eh

For completeness - the Gibbs free energy minus the electronic energy
G-E(el)                           ...      0.23997027 Eh    150.58 kcal/mol


Maximum memory used throughout the entire PROP-calculation: 106.8 MB

--------------------------------
SUGGESTED CITATIONS FOR THIS RUN
--------------------------------

Below you find a list of papers that are relevant to this ORCA run
We neither can nor want to force you to cite these papers, but we appreciate if you do
You receive ORCA, which is the product of decades of hard work by many enthusiastic individuals, for free
The only thing we kindly ask in return is that you cite our papers,
We deeply appreciate it, if you show your appreciation for ORCA by not just citing the generic ORCA reference.

Please note that relegating all ORCA citations to the supporting information does *not* help us.
SI sections are not indexed - citations you put there will not count into any citation statistics
But we need these citations in order to attract the funding resources that allow us to do what we are doing

Therefore, if you are a happy ORCA user, please consider citing a few of the papers listed below in the main body of your paper

In addition to the list printed below, the program has created the file m1_01_Vitamin_B1-GFN2_000-B97-3C-TZ.bibtex that contains the list in bibtex format
You can import this file easily into all common literature databanks and citation aid programs


List of essential papers. We consider these as the minimum necessary citations

  1. Neese,F.
     Software update: the ORCA program system, version 5.0
     WIRES Comput. Molec. Sci., 2022 12(1)e1606
     doi.org/10.1002/wcms.1606

List of papers to cite with high priority. The work reported in these papers was absolutely
necessary for this run to complete.
Our perspective: the developers of density functionals and basis sets usually get cited in chemistry papers
Good! But without the algorithms to do something with them, the functionals or basis sets would not do anything.
Hence, in our opinion, the algorithm design and method developments papers are equally worthy of getting cited

  1. Neese,F.
     An improvement of the resolution of the identity approximation for the formation of the Coulomb matrix
     J. Comp. Chem., 2003 24(14)1740-1747
     doi.org/10.1002/jcc.10318
  2. Bykov,D.; Petrenko,T.; Izsak,R.; Kossmann,S.; Becker,U.; Valeev,E.; Neese,F.
     Efficient implementation of the analytic second derivatives of Hartree-Fock and hybrid DFT energies: a detailed analysis of different approximations
     Molec. Phys., 2015 113 1961-1977
     doi.org/10.1080/00268976.2015.1025114
  3. Neese,F.
     The SHARK Integral Generation and Digestion System
     J. Comp. Chem., 2022  1-16
     doi.org/10.1002/jcc.26942
  4. Grimme,S.; Antony,J.; Ehrlich,S.; Krieg,H.
     A consistent and accurate ab initio parametrization of density functional dispersion correction (DFT-D) for the 94 elements H-Pu
     J. Chem. Phys., 2010 132 154104
     doi.org/10.1063/1.3382344
  5. Grimme,S.; Ehrlich,S.; Goerigk,L.
     Effect of the damping function in dispersion corrected density functional theory
     J. Comput. Chem., 2011 32(7)1456-1465
     doi.org/10.1002/jcc.21759

List of suggested additional citations. These are papers that are important in the 'surrounding' of 
of this run, or papers that preceded the highly important papers. If you like your results we are grateful for a citation.

  1. Neese,F.
     The ORCA program system
     WIRES Comput. Molec. Sci., 2012 2(1)73-78
     doi.org/10.1002/wcms.81
  2. Neese,F.
     Software update: the ORCA program system, version 4.0
     WIRES Comput. Molec. Sci., 2018 8(1)1-6
     doi.org/10.1002/wcms.1327
  3. Neese,F.; Wennmohs,F.; Becker,U.; Riplinger,C.
     The ORCA quantum chemistry program package
     J. Chem. Phys., 2020 152 Art. No. L224108
     doi.org/10.1063/5.0004608

List of optional additional citations

  1. Neese,F.
     Approximate second-order SCF convergence for spin unrestricted wavefunctions
     Chem. Phys. Lett., 2000 325(1-3)93-98
     doi.org/10.1016/s0009-2614(00)00662-x

Timings for individual modules:

Sum of individual times          ...      342.042 sec (=   5.701 min)
Startup calculation              ...       42.481 sec (=   0.708 min)  12.4 %
SCF iterations                   ...       77.118 sec (=   1.285 min)  22.5 %
Property integrals               ...       73.290 sec (=   1.221 min)  21.4 %
SCF Response                     ...       74.178 sec (=   1.236 min)  21.7 %
Property calculations            ...       30.721 sec (=   0.512 min)   9.0 %
SCF Gradient evaluation          ...       44.158 sec (=   0.736 min)  12.9 %
Geometry relaxation              ...        0.096 sec (=   0.002 min)   0.0 %
                             ****ORCA TERMINATED NORMALLY****
TOTAL RUN TIME: 0 days 0 hours 5 minutes 44 seconds 683 msec
