
                                 *****************
                                 * O   R   C   A *
                                 *****************

                                            #,                                       
                                            ###                                      
                                            ####                                     
                                            #####                                    
                                            ######                                   
                                           ########,                                 
                                     ,,################,,,,,                         
                               ,,#################################,,                 
                          ,,##########################################,,             
                       ,#########################################, ''#####,          
                    ,#############################################,,   '####,        
                  ,##################################################,,,,####,       
                ,###########''''           ''''###############################       
              ,#####''   ,,,,##########,,,,          '''####'''          '####       
            ,##' ,,,,###########################,,,                        '##       
           ' ,,###''''                  '''############,,,                           
         ,,##''                                '''############,,,,        ,,,,,,###''
      ,#''                                            '''#######################'''  
     '                                                          ''''####''''         
             ,#######,   #######,   ,#######,      ##                                
            ,#'     '#,  ##    ##  ,#'     '#,    #''#        ,####,   ,####,        
            ##       ##  ##   ,#'  ##            #'  '#       #'       #'  '#        
            ##       ##  #######   ##           ,######,      #####,   #    #        
            '#,     ,#'  ##    ##  '#,     ,#' ,#      #,     #,   #   #,  ,#        
             '#######'   ##     ##  '#######'  #'      '#     '####' # '####'        



                #########################################################
                #                        -***-                          #
                #          Department of theory and spectroscopy        #
                #                                                       #
                #                      Frank Neese                      #
                #                                                       #
                #     Directorship, Architecture, Infrastructure        #
                #                    SHARK, DRIVERS                     #
                #        Core code/Algorithms in most modules           #
                #                                                       #
                #        Max Planck Institute fuer Kohlenforschung      #
                #                Kaiser Wilhelm Platz 1                 #
                #                 D-45470 Muelheim/Ruhr                 #
                #                      Germany                          #
                #                                                       #
                #                  All rights reserved                  #
                #                        -***-                          #
                #########################################################


                         Program Version 6.0.1  -  RELEASE   -


 With contributions from (in alphabetic order):
[Max-Planck-Institut fuer Kohlenforschung]                               
  Daniel Aravena         : Magnetic Suceptibility                        
  Michael Atanasov       : Ab Initio Ligand Field Theory (pilot matlab implementation)
  Alexander A. Auer      : GIAO ZORA, VPT2 properties, NMR spectrum      
  Ute Becker             : All parallelization in ORCA, NUMFREQ, NUMCALC 
  Giovanni Bistoni       : ED, misc. LED, open-shell LED, HFLD           
  Martin Brehm           : Molecular dynamics                            
  Dmytro Bykov           : pre 5.0 version of the SCF Hessian            
  Marcos Casanova-Páez   : Triplet and SCS-CIS(D). UHF-(DLPNO)-IP/EA/STEOM-CCSD. UHF-CVS-IP/STEOM-CCSD   
  Vijay G. Chilkuri      : MRCI spin determinant printing, contributions to CSF-ICE 
  Pauline Colinet        : FMM embedding                                 
  Dipayan Datta          : RHF DLPNO-CCSD density                        
  Achintya Kumar Dutta   : EOM-CC, STEOM-CC                              
  Nicolas Foglia         : Exact transition moments, OPA infrastructure, MCD improvements    
  Dmitry Ganyushin       : Spin-Orbit,Spin-Spin,Magnetic field MRCI      
  Miquel Garcia-Rates    : C-PCM and meta-GGA Hessian, CCSD/C-PCM, Gaussian charge scheme 
  Tiago L. C. Gouveia    : GS-ROHF, GS-ROCIS                             
  Yang Guo               : DLPNO-NEVPT2, F12-NEVPT2, CIM, IAO-localization        
  Andreas Hansen         : Spin unrestricted coupled pair/coupled cluster methods 
  Ingolf Harden          : AUTO-CI MPn and infrastructure                
  Benjamin Helmich-Paris : MC-RPA, TRAH-(SCF,CASSCF), AVAS, COSX integrals, SCF dyn. polar. 
  Lee Huntington         : MR-EOM, pCC                                   
  Robert Izsak           : Overlap fitted RIJCOSX, COSX-SCS-MP3, EOM     
  Riya Kayal             : Wick's Theorem for AUTO-CI, AUTO-CI UHF-CCSDT 
  Emily Kempfer          : AUTO-CI, RHF CISDT and CCSDT                  
  Christian Kollmar      : KDIIS, OOCD, Brueckner-CCSD(T), CCSD density, CASPT2, CASPT2-K, improved NEVPT2 
  Axel Koslowski         : Symmetry handling                             
  Simone Kossmann        : meta-GGA functionals, TD-DFT gradient, OOMP2, (MP2 Hessian; deprecated post 5.0) 
  Lucas Lang             : DCDCAS                                        
  Marvin Lechner         : AUTO-CI (C++ implementation), FIC-MRCC        
  Spencer Leger          : CASSCF response                               
  Dagmar Lenk            : GEPOL surface, SMD, ORCA-2-JSON               
  Dimitrios Liakos       : Extrapolation schemes; Compound Job, initial MDCI parallelization 
  Dimitrios Manganas     : Further ROCIS development; embedding schemes. LFT, Crystal Embedding 
  Dimitrios Pantazis     : SARC Basis sets                               
  Anastasios Papadopoulos: AUTO-CI, single reference methods and gradients 
  Taras Petrenko         : pre 6.0 DFT Hessian and TD-DFT gradient, (ASA, deprecated), ECA, 1-Electron XAS/XES, NRVS 
  Peter Pinski           : DLPNO-MP2, DLPNO-MP2 Gradient                 
  Christoph Reimann      : Effective Core Potentials                     
  Marius Retegan         : Local ZFS, SOC                                
  Christoph Riplinger    : Optimizer, TS searches, QM/MM, DLPNO-CCSD(T), (RO)-DLPNO pert. Triples 
  Michael Roemelt        : Original ROCIS implementation                 
  Masaaki Saitow         : Open-shell DLPNO-CCSD energy and density      
  Barbara Sandhoefer     : DKH picture change effects                    
  Kantharuban Sivalingam : CASSCF convergence/infrastructure, NEVPT2 and variants, FIC-MRCI 
  Bernardo de Souza      : ESD, SOC TD-DFT                               
  Georgi L. Stoychev     : AutoAux, RI-MP2 NMR, DLPNO-MP2 response, X2C  
  Van Anh Tran           : RI-MP2 g-tensors                              
  Willem Van den Heuvel  : Paramagnetic NMR                              
  Zikuan Wang            : NOTCH, Electric field optimization            
  Frank Wennmohs         : Technical directorship and infrastructure     
  Hang Xu                : AUTO-CI-Response properties                   
                                                                         
[FACCTs GmbH]                                                            
  Markus Bursch, Miquel Garcia-Rates, Christoph Riplinger, Bernardo de Souza, Georgi L. Stoychev 
                                                                 
  APM, Basis sets (HGBS, AHGBS, def-TZVP (Ac-Lr), def2-XVPD (La-Lu)), CI-OPT, improved COSX, DLPNO-Multilevel,           
  DOCKER, DRACO, updates on ESD, GOAT, IRC, LR-CPCM, MBIS, meta-GGA TD-DFT gradient, ML-optimized integration grids, 
  MM, NACMEs, nearIR, NEB, NEB-TS, NL-DFT gradient (VV10), 2- and 3-layer-ONIOM, interface openCOSMO-RS, QMMM,   
  Crystal-QMMM, SF, symmetry and pop. for TD-DFT, r2SCAN hybrids, SOLVATOR                                   
                                                                         
[Other institutions]                                                     
  V. Asgeirsson          : NEB                                           
  Christoph Bannwarth    : sTDA-DFT, sTD-DFT, PBEh-3c, B97-3c, D3        
  Sebastian Ehlert       : rSCAN, r2SCAN, r2SCAN-3c, D4, dhf basis sets  
  Marvin Friede          : D4 for Fr, Ra, Ac-Lr                          
  Lars Goerigk           : TD-DFT with DH, B97 family of functionals     
  Stefan Grimme          : VdW corrections, initial TS optimization, DFT functionals, gCP, sTDA/sTD-DF 
  Waldemar Hujo          : DFT-NL                                        
  H. Jonsson             : NEB                                           
  Holger Kruse           : gCP                                           
  Marcel Mueller         : wB97X-3c, vDZP basis set                      
  Hagen Neugebauer       : wr2SCAN                                       
  Tobias Risthaus        : range-separated hybrid DFT                    
  Lukas Wittmann         : regularized MP2, r2SCAN double-hybrids, wr2SCAN        
                                                                         
We gratefully acknowledge several colleagues who have allowed us to      
interface, adapt or use parts of their codes:                            
  Ed Valeev, F. Pavosevic, A. Kumar             : LibInt (2-el integral package), F12 methods 
  Garnet Chan, S. Sharma, J. Yang, R. Olivares  : DMRG                   
  Ulf Ekstrom                                   : XCFun DFT Library      
  Mihaly Kallay                                 : mrcc  (arbitrary order and MRCC methods)
  Frank Weinhold                                : gennbo (NPA and NBO analysis)           
  Simon Mueller                                 : openCOSMO-RS                            
  Christopher J. Cramer and Donald G. Truhlar   : smd solvation model                     
  S Lehtola, MJT Oliveira, MAL Marques          : LibXC Library                           
  Liviu Ungur et al                             : ANISO software                          


 Your calculation uses the libint2 library for the computation of 2-el integrals
 For citations please refer to: http://libint.valeyev.net

 Your ORCA version has been built with support for libXC version: 6.2.2
 For citations please refer to: https://libxc.gitlab.io

 This ORCA versions uses:
   CBLAS   interface :  Fast vector & matrix operations
   LAPACKE interface :  Fast linear algebra routines
   SCALAPACK package :  Parallel linear algebra routines
   Shared memory     :  Shared parallel matrices
   BLAS/LAPACK       :  OpenBLAS 0.3.27  USE64BITINT DYNAMIC_ARCH NO_AFFINITY Zen SINGLE_THREADED
        Core in use  :  Zen
   Copyright (c) 2011-2014, The OpenBLAS Project


NOTE: MaxCore=6000 MB was set to SCF,MP2,MDCI,CIPSI,MRCI and CIS
      => If you want to overwrite this, your respective input block should be placed after the MaxCore statement
Your calculation utilizes the atom-pairwise dispersion correction
with the Becke-Johnson damping scheme (D3BJ)


Your calculation employs the composite approach B97-3c by Grimme and coworkers.
For the correct reference, please check the publication list of the Grimme group:
http://www.thch.uni-bonn.de/tc/index.php?section=publikationen&subsection=grimme#2017
   

XCFun DFT library Copyright 2009-2010 Ulf Ekstrom and contributors.
See http://admol.org/xcfun for more information.
This is free software; see the source code for copying conditions.
There is ABSOLUTELY NO WARRANTY; not even for MERCHANTABILITY or FITNESS FOR A PARTICULAR PURPOSE.
For details see the documentation.
Scientific users of this library should cite U. Ekstrom, L. Visscher, R. Bast, A. J. Thorvaldsen and K. Ruud;
J.Chem.Theor.Comp. 2010, DOI: 10.1021/ct100117s
XCFun Version 0.99 

================================================================================

----- Orbital basis set information -----
Your calculation utilizes the basis: def2-mTZVP
----- AuxJ basis set information -----
Your calculation utilizes the basis: def2-mTZVP/J
================================================================================
                                        WARNINGS
                       Please study these warnings very carefully!
================================================================================


WARNING: Geometry Optimization
  ===> : Switching off AutoStart
         For restart on a previous wavefunction, please use MOREAD

================================================================================
                                       INPUT FILE
================================================================================
NAME = m1_01_Vitamin_B1-GFN2_006-B97-3C-TZ.inp
|  1> %pal nprocs 16 end
|  2> %MaxCore 6000
|  3> # put your comments here
|  4> ! B97-3C  OPT  FREQ DEFGRID3 NOTRAH
|  5> %scf MaxIter 800 end
|  6> %output
|  7> Print [P_Hirshfeld] 1
|  8> end
|  9> %geom
| 10> MaxIter 3000
| 11>  TolE 1e-6 #TolE 5e-6 Energy change (a.u.)
| 12>  TolRMSG 3e-5 #TolRMSG 1e-4 RMS gradient (a.u.)
| 13>  TolMaxG 1e-4 #TolMaxG 3e-3 Max. element of gradient (a.u.)
| 14>  TolRMSD 2e-3 #TolRMSD 2e-3 RMS displacement (a.u.)
| 15>  TolMaxD 4e-3 #TolMaxD 4e-3 Max. displacement (a.u.)
| 16> end
| 17> * xyz 1 1
| 18>  S -2.97212344201653 5.16426329322016 -5.32262281492492
| 19>  O -0.77647673336565 6.25531000094192 -5.31641236510455
| 20>  N -4.45398727083812 3.69170053406439 -3.89883202868509
| 21>  N -5.01431074261254 -0.86269819841336 -2.69229231191257
| 22>  N -3.61317807026109 -0.31168429270281 -4.48925359300847
| 23>  N -6.45058651398702 0.60951417999741 -1.71068318667700
| 24>  C -3.36463882087820 3.95063417770353 -3.10120608726287
| 25>  C -5.51786104704673 2.78864592808757 -3.51099861388967
| 26>  C -2.44725416772996 4.74306578225741 -3.72649833503423
| 27>  C -1.15577878267883 5.26976130269977 -3.20523695557533
| 28>  C -5.03821983919602 1.35479930347885 -3.55423981254176
| 29>  C -4.37849092408785 4.25803547772918 -5.09047317428235
| 30>  C -3.29084940142493 3.39516334646492 -1.72526117479609
| 31>  C -0.14958224492147 5.44418805997917 -4.34460969447556
| 32>  C -5.52111193452276 0.36509863883810 -2.66678575806590
| 33>  C -4.08736680964741 0.91908508177730 -4.46277976574831
| 34>  C -4.08384684273666 -1.16368394138411 -3.58311762905955
| 35>  C -3.54798818038927 -2.54866423089770 -3.58574744133763
| 36>  H -6.35847172339249 2.93801853320750 -4.19592789939921
| 37>  H -5.83828552835693 3.04459220566327 -2.49779231380193
| 38>  H -0.74100693410272 4.60527275633811 -2.44824157940352
| 39>  H -1.33135682499446 6.24873744964169 -2.74928359762664
| 40>  H -5.14421022722224 4.13964607859847 -5.83394783248272
| 41>  H -4.07384892147410 3.81938260599012 -1.09713075689588
| 42>  H -3.41470380047444 2.31320553885474 -1.74016962217286
| 43>  H -2.33395035511515 3.62953154209572 -1.27173616272324
| 44>  H 0.11303933978568 4.46500090816369 -4.76697766958178
| 45>  H 0.75966528531526 5.92051753874419 -3.96365850291308
| 46>  H -3.67071636246009 1.58881548075045 -5.20753431233799
| 47>  H -7.13043083309744 1.33982219347136 -1.82842507039282
| 48>  H -6.75922931388651 -0.20958536034814 -1.21018717066314
| 49>  H -0.19945682319058 6.37700170965319 -6.07816303098229
| 50>  H -3.65849604166459 -2.99442180827718 -2.60232142286913
| 51>  H -4.11357129933910 -3.14526700076515 -4.30052465017798
| 52>  H -2.50873486799028 -2.54495781562375 -3.90012866319420
| 53> *
| 54> 
| 55> 
| 56> 
| 57> 
| 58>                          ****END OF INPUT****
================================================================================

                       *****************************
                       * Geometry Optimization Run *
                       *****************************

Geometry optimization settings:
Update method            Update   .... BFGS
Choice of coordinates    CoordSys .... (2022) Redundant Internals
Initial Hessian          InHess   .... Almloef's Model
Max. no of cycles        MaxIter  .... 3000

Convergence Tolerances:
Energy Change            TolE     ....  1.0000e-06 Eh
Max. Gradient            TolMAXG  ....  1.0000e-04 Eh/bohr
RMS Gradient             TolRMSG  ....  3.0000e-05 Eh/bohr
Max. Displacement        TolMAXD  ....  4.0000e-03 bohr
RMS Displacement         TolRMSD  ....  2.0000e-03 bohr
Strict Convergence                .... False

------------------------------------------------------------------------------
                        ORCA OPTIMIZATION COORDINATE SETUP
------------------------------------------------------------------------------

The optimization will be done in redundant internal coordinates (2022)
Making redundant internal coordinates   ...  (2022 redundants) done
Evaluating the initial hessian          ...  (Almloef) done
Evaluating the coordinates              ...  done
Calculating the B-matrix                .... done
Calculating the G-matrix                .... done
Diagonalizing the G-matrix              .... done
Small eigenvalue found = 2.773e-03
Small eigenvalue found = 8.080e-03
Small eigenvalue found = 1.179e-02
Small eigenvalue found = 1.959e-02
The first mode is                       ....   68
The number of degrees of freedom        ....   99

    -----------------------------------------------------------------
                    Redundant Internal Coordinates


    -----------------------------------------------------------------
         Definition                    Initial Value    Approx d2E/dq
    -----------------------------------------------------------------
      1. B(C   6,N   2)                  1.3747         0.591845   
      2. B(C   7,N   2)                  1.4484         0.451611   
      3. B(C   8,S   0)                  1.7322         0.479239   
      4. B(C   8,C   6)                  1.3640         0.687382   
      5. B(C   9,C   8)                  1.4890         0.434349   
      6. B(C  10,C   7)                  1.5126         0.398290   
      7. B(C  11,S   0)                  1.6891         0.561479   
      8. B(C  11,N   2)                  1.3215         0.719637   
      9. B(C  12,C   6)                  1.4857         0.439645   
     10. B(C  13,C   9)                  1.5300         0.373518   
     11. B(C  13,O   1)                  1.4126         0.515096   
     12. B(C  14,C  10)                  1.4143         0.571422   
     13. B(C  14,N   5)                  1.3557         0.634855   
     14. B(C  14,N   3)                  1.3285         0.701378   
     15. B(C  15,N   4)                  1.3192         0.725765   
     16. B(C  15,C  10)                  1.3854         0.635377   
     17. B(C  16,N   4)                  1.3299         0.697963   
     18. B(C  16,N   3)                  1.3228         0.716165   
     19. B(C  17,C  16)                  1.4850         0.440677   
     20. B(H  18,C   7)                  1.0946         0.354115   
     21. B(H  19,C   7)                  1.0931         0.356082   
     22. B(H  20,C   9)                  1.0893         0.360998   
     23. B(H  21,C   9)                  1.0941         0.354681   
     24. B(H  22,C  11)                  1.0738         0.382148   
     25. B(H  23,C  12)                  1.0898         0.360405   
     26. B(H  24,C  12)                  1.0891         0.361258   
     27. B(H  25,C  12)                  1.0846         0.367370   
     28. B(H  26,C  13)                  1.0983         0.349339   
     29. B(H  27,C  13)                  1.0949         0.353712   
     30. B(H  28,C  15)                  1.0848         0.367042   
     31. B(H  29,N   5)                  1.0047         0.441232   
     32. B(H  30,N   5)                  1.0083         0.435409   
     33. B(H  31,O   1)                  0.9633         0.513614   
     34. B(H  32,C  17)                  1.0854         0.366271   
     35. B(H  33,C  17)                  1.0894         0.360935   
     36. B(H  34,C  17)                  1.0858         0.365739   
     37. A(C   8,S   0,C  11)           89.7242         0.453566   
     38. A(C  13,O   1,H  31)          110.5312         0.357818   
     39. A(C   6,N   2,C  11)          113.4025         0.436381   
     40. A(C   7,N   2,C  11)          123.4093         0.415756   
     41. A(C   6,N   2,C   7)          122.9645         0.401613   
     42. A(C  14,N   3,C  16)          119.4411         0.449597   
     43. A(C  15,N   4,C  16)          117.1823         0.450286   
     44. A(C  14,N   5,H  29)          120.8204         0.361317   
     45. A(C  14,N   5,H  30)          114.4241         0.360500   
     46. A(H  29,N   5,H  30)          116.2022         0.304509   
     47. A(C   8,C   6,C  12)          127.4718         0.415779   
     48. A(N   2,C   6,C  12)          120.4165         0.402297   
     49. A(N   2,C   6,C   8)          112.1100         0.435647   
     50. A(C  10,C   7,H  19)          109.9640         0.327150   
     51. A(N   2,C   7,H  19)          108.5144         0.332004   
     52. A(C  10,C   7,H  18)          110.7941         0.326852   
     53. A(N   2,C   7,C  10)          110.5163         0.377180   
     54. A(H  18,C   7,H  19)          108.8419         0.289565   
     55. A(N   2,C   7,H  18)          108.1476         0.331699   
     56. A(S   0,C   8,C   6)          111.0929         0.445612   
     57. A(C   6,C   8,C   9)          128.9302         0.414884   
     58. A(S   0,C   8,C   9)          119.9594         0.410421   
     59. A(C   8,C   9,C  13)          110.4893         0.372863   
     60. A(C  13,C   9,H  20)          109.6716         0.324443   
     61. A(H  20,C   9,H  21)          108.5003         0.290261   
     62. A(C   8,C   9,H  21)          108.8568         0.331651   
     63. A(C   8,C   9,H  20)          110.9628         0.332623   
     64. A(C  13,C   9,H  21)          108.2915         0.323505   
     65. A(C  14,C  10,C  15)          115.1980         0.429636   
     66. A(C   7,C  10,C  15)          122.3111         0.402914   
     67. A(C   7,C  10,C  14)          122.4899         0.395466   
     68. A(S   0,C  11,N   2)          113.6670         0.459411   
     69. A(N   2,C  11,H  22)          122.4340         0.363382   
     70. A(S   0,C  11,H  22)          123.8979         0.368909   
     71. A(H  23,C  12,H  25)          107.9858         0.291793   
     72. A(H  24,C  12,H  25)          108.7071         0.291902   
     73. A(C   6,C  12,H  25)          110.5061         0.334261   
     74. A(H  23,C  12,H  24)          108.2338         0.291025   
     75. A(C   6,C  12,H  24)          110.6770         0.333332   
     76. A(C   6,C  12,H  23)          110.6457         0.333201   
     77. A(O   1,C  13,C   9)          106.6138         0.381604   
     78. A(H  26,C  13,H  27)          108.8513         0.288648   
     79. A(C   9,C  13,H  27)          109.6716         0.323359   
     80. A(O   1,C  13,H  27)          110.9845         0.338969   
     81. A(C   9,C  13,H  26)          109.9987         0.322700   
     82. A(O   1,C  13,H  26)          110.7021         0.338266   
     83. A(N   3,C  14,N   5)          116.2134         0.439894   
     84. A(N   5,C  14,C  10)          123.3997         0.426770   
     85. A(N   3,C  14,C  10)          120.2931         0.434475   
     86. A(C  10,C  15,H  28)          121.3093         0.355526   
     87. A(N   4,C  15,H  28)          115.0967         0.361411   
     88. A(N   4,C  15,C  10)          123.5914         0.445619   
     89. A(N   4,C  16,C  17)          117.9428         0.414385   
     90. A(N   3,C  16,C  17)          117.8526         0.416286   
     91. A(N   3,C  16,N   4)          124.1959         0.449199   
     92. A(H  33,C  17,H  34)          107.9886         0.291657   
     93. A(H  32,C  17,H  34)          111.1742         0.292331   
     94. A(C  16,C  17,H  34)          110.0420         0.334144   
     95. A(H  32,C  17,H  33)          108.4651         0.291723   
     96. A(C  16,C  17,H  33)          108.9402         0.333412   
     97. A(C  16,C  17,H  32)          110.1623         0.334225   
     98. D(C  12,C   6,N   2,C   7)     -5.5753         0.028171   
     99. D(C  12,C   6,N   2,C  11)    179.6953         0.028171   
    100. D(C   8,C   6,N   2,C  11)      0.1461         0.028171   
    101. D(C   8,C   6,N   2,C   7)    174.8755         0.028171   
    102. D(H  19,C   7,N   2,C   6)     48.9561         0.017400   
    103. D(C  10,C   7,N   2,C  11)    102.5119         0.017400   
    104. D(H  18,C   7,N   2,C  11)    -18.9243         0.017400   
    105. D(C  10,C   7,N   2,C   6)    -71.6919         0.017400   
    106. D(H  18,C   7,N   2,C   6)    166.8719         0.017400   
    107. D(C   9,C   8,C   6,N   2)    178.7210         0.033178   
    108. D(S   0,C   8,C   6,N   2)      0.2685         0.033178   
    109. D(S   0,C   8,C   6,C  12)   -179.2417         0.033178   
    110. D(C   9,C   8,C   6,C  12)     -0.7892         0.033178   
    111. D(C   6,C   8,S   0,C  11)     -0.4572         0.004890   
    112. D(C   9,C   8,S   0,C  11)   -179.0678         0.004890   
    113. D(H  21,C   9,C   8,S   0)     86.9514         0.013927   
    114. D(H  20,C   9,C   8,C   6)     27.9533         0.013927   
    115. D(H  20,C   9,C   8,S   0)   -153.7132         0.013927   
    116. D(C  13,C   9,C   8,C   6)    149.8233         0.013927   
    117. D(C  13,C   9,C   8,S   0)    -31.8432         0.013927   
    118. D(C  15,C  10,C   7,H  18)     87.8159         0.011777   
    119. D(C  15,C  10,C   7,N   2)    -32.0409         0.011777   
    120. D(C  14,C  10,C   7,H  19)     27.8028         0.011777   
    121. D(C  14,C  10,C   7,H  18)    -92.5612         0.011777   
    122. D(C  14,C  10,C   7,N   2)    147.5819         0.011777   
    123. D(H  22,C  11,N   2,C   6)    179.1357         0.043100   
    124. D(S   0,C  11,N   2,C   7)   -175.2143         0.043100   
    125. D(S   0,C  11,N   2,C   6)     -0.5118         0.043100   
    126. D(N   2,C  11,S   0,C   8)      0.5537         0.006230   
    127. D(H  22,C  11,N   2,C   7)      4.4332         0.043100   
    128. D(H  22,C  11,S   0,C   8)   -179.0879         0.006230   
    129. D(H  25,C  12,C   6,N   2)    175.3743         0.014263   
    130. D(H  24,C  12,C   6,C   8)   -125.6267         0.014263   
    131. D(H  24,C  12,C   6,N   2)     54.8995         0.014263   
    132. D(H  23,C  12,C   6,C   8)    114.4003         0.014263   
    133. D(H  23,C  12,C   6,N   2)    -65.0735         0.014263   
    134. D(H  26,C  13,C   9,H  21)    175.1679         0.011140   
    135. D(H  26,C  13,C   9,H  20)     56.9335         0.011140   
    136. D(H  26,C  13,C   9,C   8)    -65.6943         0.011140   
    137. D(O   1,C  13,C   9,H  21)    -64.7543         0.011140   
    138. D(O   1,C  13,C   9,H  20)    177.0112         0.011140   
    139. D(O   1,C  13,C   9,C   8)     54.3834         0.011140   
    140. D(H  27,C  13,O   1,H  31)     62.5656         0.021020   
    141. D(H  26,C  13,O   1,H  31)    -58.4254         0.021020   
    142. D(C   9,C  13,O   1,H  31)   -178.0484         0.021020   
    143. D(N   5,C  14,C  10,C   7)      0.2164         0.022403   
    144. D(N   3,C  14,C  10,C  15)      3.5211         0.022403   
    145. D(N   3,C  14,C  10,C   7)   -176.1266         0.022403   
    146. D(C  10,C  14,N   5,H  30)    174.6508         0.032761   
    147. D(C  10,C  14,N   5,H  29)     27.9709         0.032761   
    148. D(N   3,C  14,N   5,H  30)     -8.8686         0.032761   
    149. D(N   3,C  14,N   5,H  29)   -155.5486         0.032761   
    150. D(C  10,C  14,N   3,C  16)     -2.1254         0.036853   
    151. D(N   5,C  14,C  10,C  15)    179.8641         0.022403   
    152. D(N   5,C  14,N   3,C  16)   -178.7227         0.036853   
    153. D(H  28,C  15,C  10,C  14)    178.2393         0.028022   
    154. D(H  28,C  15,C  10,C   7)     -2.1123         0.028022   
    155. D(N   4,C  15,C  10,C  14)     -2.3726         0.028022   
    156. D(N   4,C  15,C  10,C   7)    177.2758         0.028022   
    157. D(H  28,C  15,N   4,C  16)    179.2086         0.039729   
    158. D(C  10,C  15,N   4,C  16)     -0.2141         0.039729   
    159. D(C  17,C  16,N   3,C  14)   -179.6285         0.038581   
    160. D(N   4,C  16,N   3,C  14)     -0.7267         0.038581   
    161. D(C  17,C  16,N   4,C  15)   -179.1807         0.036461   
    162. D(N   3,C  16,N   4,C  15)      1.9184         0.036461   
    163. D(H  34,C  17,C  16,N   3)   -148.3853         0.014329   
    164. D(H  33,C  17,C  16,N   4)    -85.5692         0.014329   
    165. D(H  33,C  17,C  16,N   3)     93.4026         0.014329   
    166. D(H  32,C  17,C  16,N   4)    155.5677         0.014329   
    167. D(H  32,C  17,C  16,N   3)    -25.4605         0.014329   
    -----------------------------------------------------------------

Number of atoms                         .... 35
Number of degrees of freedom            .... 167


         *************************************************************
         *                GEOMETRY OPTIMIZATION CYCLE   1            *
         *************************************************************
---------------------------------
CARTESIAN COORDINATES (ANGSTROEM)
---------------------------------
  S     -2.972123    5.164263   -5.322623
  O     -0.776477    6.255310   -5.316412
  N     -4.453987    3.691701   -3.898832
  N     -5.014311   -0.862698   -2.692292
  N     -3.613178   -0.311684   -4.489254
  N     -6.450587    0.609514   -1.710683
  C     -3.364639    3.950634   -3.101206
  C     -5.517861    2.788646   -3.510999
  C     -2.447254    4.743066   -3.726498
  C     -1.155779    5.269761   -3.205237
  C     -5.038220    1.354799   -3.554240
  C     -4.378491    4.258035   -5.090473
  C     -3.290849    3.395163   -1.725261
  C     -0.149582    5.444188   -4.344610
  C     -5.521112    0.365099   -2.666786
  C     -4.087367    0.919085   -4.462780
  C     -4.083847   -1.163684   -3.583118
  C     -3.547988   -2.548664   -3.585747
  H     -6.358472    2.938019   -4.195928
  H     -5.838286    3.044592   -2.497792
  H     -0.741007    4.605273   -2.448242
  H     -1.331357    6.248737   -2.749284
  H     -5.144210    4.139646   -5.833948
  H     -4.073849    3.819383   -1.097131
  H     -3.414704    2.313206   -1.740170
  H     -2.333950    3.629532   -1.271736
  H      0.113039    4.465001   -4.766978
  H      0.759665    5.920518   -3.963659
  H     -3.670716    1.588815   -5.207534
  H     -7.130431    1.339822   -1.828425
  H     -6.759229   -0.209585   -1.210187
  H     -0.199457    6.377002   -6.078163
  H     -3.658496   -2.994422   -2.602321
  H     -4.113571   -3.145267   -4.300525
  H     -2.508735   -2.544958   -3.900129

----------------------------
CARTESIAN COORDINATES (A.U.)
----------------------------
  NO LB      ZA    FRAG     MASS         X           Y           Z
   0 S    16.0000    0    32.060   -5.616499    9.759043  -10.058299
   1 O     8.0000    0    15.999   -1.467328   11.820823  -10.046563
   2 N     7.0000    0    14.007   -8.416816    6.976303   -7.367725
   3 N     7.0000    0    14.007   -9.475674   -1.630263   -5.087695
   4 N     7.0000    0    14.007   -6.827917   -0.588998   -8.483460
   5 N     7.0000    0    14.007  -12.189842    1.151815   -3.232723
   6 C     6.0000    0    12.011   -6.358246    7.465617   -5.860430
   7 C     6.0000    0    12.011  -10.427246    5.269777   -6.634826
   8 C     6.0000    0    12.011   -4.624640    8.963095   -7.042061
   9 C     6.0000    0    12.011   -2.184105    9.958406   -6.057020
  10 C     6.0000    0    12.011   -9.520856    2.560200   -6.716540
  11 C     6.0000    0    12.011   -8.274149    8.046521   -9.619600
  12 C     6.0000    0    12.011   -6.218804    6.415929   -3.260271
  13 C     6.0000    0    12.011   -0.282669   10.288024   -8.210122
  14 C     6.0000    0    12.011  -10.433390    0.689936   -5.039495
  15 C     6.0000    0    12.011   -7.724004    1.736819   -8.433432
  16 C     6.0000    0    12.011   -7.717352   -2.199044   -6.771111
  17 C     6.0000    0    12.011   -6.704726   -4.816277   -6.776081
  18 H     1.0000    0     1.008  -12.015770    5.552050   -7.929155
  19 H     1.0000    0     1.008  -11.032761    5.753445   -4.720143
  20 H     1.0000    0     1.008   -1.400300    8.702704   -4.626506
  21 H     1.0000    0     1.008   -2.515900   11.808402   -5.195393
  22 H     1.0000    0     1.008   -9.721149    7.822797  -11.024564
  23 H     1.0000    0     1.008   -7.698459    7.217587   -2.073277
  24 H     1.0000    0     1.008   -6.452855    4.371325   -3.288444
  25 H     1.0000    0     1.008   -4.410527    6.858821   -2.403233
  26 H     1.0000    0     1.008    0.213613    8.437629   -9.008282
  27 H     1.0000    0     1.008    1.435559   11.188157   -7.490229
  28 H     1.0000    0     1.008   -6.936649    3.002426   -9.840814
  29 H     1.0000    0     1.008  -13.474561    2.531897   -3.455223
  30 H     1.0000    0     1.008  -12.773092   -0.396059   -2.286922
  31 H     1.0000    0     1.008   -0.376919   12.050787  -11.486064
  32 H     1.0000    0     1.008   -6.913556   -5.658637   -4.917675
  33 H     1.0000    0     1.008   -7.773523   -5.943693   -8.126814
  34 H     1.0000    0     1.008   -4.740822   -4.809273   -7.370175

--------------------------------
INTERNAL COORDINATES (ANGSTROEM)
--------------------------------
 S      0   0   0     0.000000000000     0.00000000     0.00000000
 O      1   0   0     2.451792396865     0.00000000     0.00000000
 N      1   2   0     2.528149855092   141.50662666     0.00000000
 N      3   1   2     4.744707398309   140.49195557   280.41769530
 N      4   3   1     2.344324835763    60.58615912   347.00941105
 N      4   3   1     2.279002819948    64.14306811   178.12915238
 C      3   1   2     1.374748638722    75.67537933     4.45282928
 C      3   1   2     1.448361070559   160.82456876   197.17889764
 C      7   3   1     1.364013506110   112.10998718   359.82287921
 C      9   7   3     1.488969531979   128.93017277   178.72099903
 C      8   3   1     1.512561282207   110.51625670    93.57025423
 C      3   1   2     1.321530774015    37.72840172   184.93761590
 C      7   3   1     1.485670597718   120.41646989   179.37209266
 C      2   1   3     1.412556523964    98.25910902    21.21723733
 C      4   3   1     1.328526667393    33.15664753   190.59079197
 C      5   4   3     1.319222906581    89.37375079   348.43074941
 C      4   3   1     1.322847395626    87.94226860   353.19881459
 C     17   4   3     1.485032600405   117.85263201   169.55153371
 H      8   3   1     1.094562291738   108.14759508   332.13408087
 H      8   3   1     1.093054139448   108.51435904   214.21821628
 H     10   9   7     1.089322135166   110.96276404    27.95326845
 H     10   9   7     1.094127693576   108.85678183   268.61792524
 H     12   3   1     1.073823387902   122.43401216   179.64753537
 H     13   7   3     1.089769723584   110.64571652   294.92650301
 H     13   7   3     1.089125737193   110.67699993    54.89953829
 H     13   7   3     1.084559437065   110.50612297   175.37427318
 H     14   2   1     1.098258749763   110.70212319    75.33488563
 H     14   2   1     1.094871980615   110.98451485   196.32584241
 H     16   5   4     1.084802164967   115.09673596   180.10384018
 H      6   4   3     1.004689625681   147.73035499    54.51915163
 H      6   4   3     1.008305854872    83.21967108   184.64983830
 H      2   1   3     0.963340503494   126.20043329   144.27011656
 H     18  17   4     1.085374838015   110.16232163   334.53951921
 H     18  17   4     1.089369353219   108.94017711    93.40257603
 H     18  17   4     1.085770112640   110.04204404   211.61474873

---------------------------
INTERNAL COORDINATES (A.U.)
---------------------------
 S      0   0   0     0.000000000000     0.00000000     0.00000000
 O      1   0   0     4.633216167306     0.00000000     0.00000000
 N      1   2   0     4.777510851637   141.50662666     0.00000000
 N      3   1   2     8.966197568394   140.49195557   280.41769530
 N      4   3   1     4.430131908542    60.58615912   347.00941105
 N      4   3   1     4.306691188135    64.14306811   178.12915238
 C      3   1   2     2.597898430166    75.67537933     4.45282928
 C      3   1   2     2.737005766390   160.82456876   197.17889764
 C      7   3   1     2.577611969518   112.10998718   359.82287921
 C      9   7   3     2.813744637194   128.93017277   178.72099903
 C      8   3   1     2.858326584144   110.51625670    93.57025423
 C      3   1   2     2.497331240437    37.72840172   184.93761590
 C      7   3   1     2.807510554906   120.41646989   179.37209266
 C      2   1   3     2.669344978977    98.25910902    21.21723733
 C      4   3   1     2.510551562985    33.15664753   190.59079197
 C      5   4   3     2.492970003034    89.37375079   348.43074941
 C      4   3   1     2.499819294704    87.94226860   353.19881459
 C     17   4   3     2.806304914711   117.85263201   169.55153371
 H      8   3   1     2.068422967903   108.14759508   332.13408087
 H      8   3   1     2.065572973106   108.51435904   214.21821628
 H     10   9   7     2.058520507082   110.96276404    27.95326845
 H     10   9   7     2.067601696397   108.85678183   268.61792524
 H     12   3   1     2.029232119334   122.43401216   179.64753537
 H     13   7   3     2.059366326613   110.64571652   294.92650301
 H     13   7   3     2.058149368699   110.67699993    54.89953829
 H     13   7   3     2.049520312013   110.50612297   175.37427318
 H     14   2   1     2.075408261234   110.70212319    75.33488563
 H     14   2   1     2.069008195066   110.98451485   196.32584241
 H     16   5   4     2.049979001272   115.09673596   180.10384018
 H      6   4   3     1.898588242130   147.73035499    54.51915163
 H      6   4   3     1.905421924938    83.21967108   184.64983830
 H      2   1   3     1.820449725318   126.20043329   144.27011656
 H     18  17   4     2.051061196497   110.16232163   334.53951921
 H     18  17   4     2.058609736270   108.94017711    93.40257603
 H     18  17   4     2.051808157287   110.04204404   211.61474873

---------------------
BASIS SET INFORMATION
---------------------
There are 5 groups of distinct atoms

 Group   1 Type S   : 14s9p1d contracted to 5s4p1d pattern {73211/6111/1}
 Group   2 Type O   : 11s6p2d contracted to 5s3p2d pattern {62111/411/11}
 Group   3 Type N   : 11s6p1d contracted to 5s3p1d pattern {62111/411/1}
 Group   4 Type C   : 11s6p1d contracted to 5s3p1d pattern {62111/411/1}
 Group   5 Type H   : 5s contracted to 3s pattern {311}

Atom   0S    basis set group =>   1
Atom   1O    basis set group =>   2
Atom   2N    basis set group =>   3
Atom   3N    basis set group =>   3
Atom   4N    basis set group =>   3
Atom   5N    basis set group =>   3
Atom   6C    basis set group =>   4
Atom   7C    basis set group =>   4
Atom   8C    basis set group =>   4
Atom   9C    basis set group =>   4
Atom  10C    basis set group =>   4
Atom  11C    basis set group =>   4
Atom  12C    basis set group =>   4
Atom  13C    basis set group =>   4
Atom  14C    basis set group =>   4
Atom  15C    basis set group =>   4
Atom  16C    basis set group =>   4
Atom  17C    basis set group =>   4
Atom  18H    basis set group =>   5
Atom  19H    basis set group =>   5
Atom  20H    basis set group =>   5
Atom  21H    basis set group =>   5
Atom  22H    basis set group =>   5
Atom  23H    basis set group =>   5
Atom  24H    basis set group =>   5
Atom  25H    basis set group =>   5
Atom  26H    basis set group =>   5
Atom  27H    basis set group =>   5
Atom  28H    basis set group =>   5
Atom  29H    basis set group =>   5
Atom  30H    basis set group =>   5
Atom  31H    basis set group =>   5
Atom  32H    basis set group =>   5
Atom  33H    basis set group =>   5
Atom  34H    basis set group =>   5
---------------------------------
AUXILIARY/J BASIS SET INFORMATION
---------------------------------
There are 5 groups of distinct atoms

 Group   1 Type S   : 14s5p5d2f1g contracted to 8s4p3d1f1g pattern {71111111/2111/311/2/1}
 Group   2 Type O   : 8s3p3d contracted to 6s3p3d pattern {311111/111/111}
 Group   3 Type N   : 8s3p3d contracted to 6s3p3d pattern {311111/111/111}
 Group   4 Type C   : 8s3p3d contracted to 6s3p3d pattern {311111/111/111}
 Group   5 Type H   : 5s2p contracted to 3s1p pattern {311/2}

Atom   0S    basis set group =>   1
Atom   1O    basis set group =>   2
Atom   2N    basis set group =>   3
Atom   3N    basis set group =>   3
Atom   4N    basis set group =>   3
Atom   5N    basis set group =>   3
Atom   6C    basis set group =>   4
Atom   7C    basis set group =>   4
Atom   8C    basis set group =>   4
Atom   9C    basis set group =>   4
Atom  10C    basis set group =>   4
Atom  11C    basis set group =>   4
Atom  12C    basis set group =>   4
Atom  13C    basis set group =>   4
Atom  14C    basis set group =>   4
Atom  15C    basis set group =>   4
Atom  16C    basis set group =>   4
Atom  17C    basis set group =>   4
Atom  18H    basis set group =>   5
Atom  19H    basis set group =>   5
Atom  20H    basis set group =>   5
Atom  21H    basis set group =>   5
Atom  22H    basis set group =>   5
Atom  23H    basis set group =>   5
Atom  24H    basis set group =>   5
Atom  25H    basis set group =>   5
Atom  26H    basis set group =>   5
Atom  27H    basis set group =>   5
Atom  28H    basis set group =>   5
Atom  29H    basis set group =>   5
Atom  30H    basis set group =>   5
Atom  31H    basis set group =>   5
Atom  32H    basis set group =>   5
Atom  33H    basis set group =>   5
Atom  34H    basis set group =>   5


           ************************************************************
           *        Program running with 16 parallel MPI-processes    *
           *              working on a common directory               *
           ************************************************************
------------------------------------------------------------------------------
                             ORCA STARTUP CALCULATIONS
                           -- RI-GTO INTEGRALS CHOSEN --
------------------------------------------------------------------------------
------------------------------------------------------------------------------
                   ___                                                        
                  /   \      - P O W E R E D   B Y -                         
                 /     \                                                     
                 |  |  |   _    _      __       _____    __    __             
                 |  |  |  | |  | |    /  \     |  _  \  |  |  /  |          
                  \  \/   | |  | |   /    \    | | | |  |  | /  /          
                 / \  \   | |__| |  /  /\  \   | |_| |  |  |/  /          
                |  |  |   |  __  | /  /__\  \  |    /   |      \           
                |  |  |   | |  | | |   __   |  |    \   |  |\   \          
                \     /   | |  | | |  |  |  |  | |\  \  |  | \   \       
                 \___/    |_|  |_| |__|  |__|  |_| \__\ |__|  \__/        
                                                                              
                      - O R C A' S   B I G   F R I E N D -                    
                                      &                                       
                       - I N T E G R A L  F E E D E R -                       
                                                                              
 v1 FN, 2020, v2 2021, v3 2022-2024                                           
------------------------------------------------------------------------------


----------------------
SHARK INTEGRAL PACKAGE
----------------------

Number of atoms                             ...     35
Number of basis functions                   ...    401
Number of shells                            ...    215
Maximum angular momentum                    ...      2
Integral batch strategy                     ... SHARK/LIBINT Hybrid
RI-J (if used) integral strategy            ... SPLIT-RIJ (Revised 2003 algorithm where possible)
Printlevel                                  ...      1
Contraction scheme used                     ... SEGMENTED contraction
Prescreening option                         ... SCHWARTZ
   Thresh                                   ... 2.500e-11
   Tcut                                     ... 2.500e-12
   Tpresel                                  ... 2.500e-12 
Coulomb Range Separation                    ... NOT USED
Exchange Range Separation                   ... NOT USED
Multipole approximations                    ... NOT USED
Finite Nucleus Model                        ... NOT USED
CABS basis                                  ... NOT available
Auxiliary Coulomb fitting basis             ... AVAILABLE
   # of basis functions in Aux-J            ...    663
   # of shells in Aux-J                     ...    289
   Maximum angular momentum in Aux-J        ...      4
Auxiliary J/K fitting basis                 ... NOT available
Auxiliary Correlation fitting basis         ... NOT available
Auxiliary 'external' fitting basis          ... NOT available

Checking pre-screening integrals            ... done (  0.0 sec) Dimension = 215
Check shell pair data                       ... done (  0.0 sec)
Shell pair information
Shell pair cut-off parameter TPreSel        ...   2.5e-12
Total number of shell pairs                 ...     23220
Shell pairs after pre-screening             ...     17545
Total number of primitive shell pairs       ...     87201
Primitive shell pairs kept                  ...     42004
          la=0 lb=0:   7111 shell pairs
          la=1 lb=0:   6256 shell pairs
          la=1 lb=1:   1358 shell pairs
          la=2 lb=0:   1845 shell pairs
          la=2 lb=1:    841 shell pairs
          la=2 lb=2:    134 shell pairs

Calculating one electron integrals          ... done (  0.0 sec)
Calculating RI/J V-Matrix + Cholesky decomp.... done (  0.0 sec)
Calculating Nuclear repulsion               ... done (  0.0 sec) ENN=   1475.755086858671 Eh

Diagonalization of the overlap matrix:
Smallest eigenvalue                        ... 4.990e-05
Time for diagonalization                   ...    0.013 sec
Threshold for overlap eigenvalues          ... 1.000e-07
Number of eigenvalues below threshold      ... 0
Time for construction of square roots      ...    0.007 sec
Total time needed                          ...    0.021 sec

-------------------
DFT GRID GENERATION
-------------------

General Integration Accuracy     IntAcc      ... 4.959
Radial Grid Type                 RadialGrid  ... OptM3 with GC (2021)
Angular Grid (max. ang.)         AngularGrid ... 6 (Lebedev-590)
Angular grid pruning method      GridPruning ... 4 (adaptive)
Weight generation scheme         WeightScheme... mBecke (2022)
Basis function cutoff            BFCut       ... 1.0000e-11
Integration weight cutoff        WCut        ... 1.0000e-14
Partially contracted basis set               ... off
Rotationally invariant grid construction     ... off
Angular grids for H and He will be reduced by one unit
Diffuse basis detected: some atoms will have their outermost
                        angular grid increased by 1.

Total number of grid points                  ...   403316
Total number of batches                      ...     6318
Average number of points per batch           ...       63
Average number of grid points per atom       ...    11523
Initializing property integral containers    ... done (  0.0 sec)

SHARK setup successfully completed in   3.1 seconds

Maximum memory used throughout the entire STARTUP-calculation: 92.9 MB


           ************************************************************
           *        Program running with 16 parallel MPI-processes    *
           *              working on a common directory               *
           ************************************************************
-------------------------------------------------------------------------------
                                 ORCA GUESS
                   Start orbitals & Density for SCF / CASSCF
-------------------------------------------------------------------------------

------------
SCF SETTINGS
------------
Hamiltonian:
 Density Functional     Method          .... DFT(GTOs)
 Exchange Functional    Exchange        .... B973C
 Correlation Functional Correlation     .... B973C
 Gradients option       PostSCFGGA      .... off
 RI-approximation to the Coulomb term is turned on
   Number of AuxJ basis functions       .... 663


General Settings:
 Integral files         IntName         .... m1_01_Vitamin_B1-GFN2_006-B97-3C-TZ
 Hartree-Fock type      HFTyp           .... RHF
 Total Charge           Charge          ....    1
 Multiplicity           Mult            ....    1
 Number of Electrons    NEL             ....  140
 Basis Dimension        Dim             ....  401
 Nuclear Repulsion      ENuc            ....   1475.7550868587 Eh

Convergence Acceleration:
 AO-DIIS                CNVDIIS         .... on
   Start iteration      DIISMaxIt       ....    12
   Startup error        DIISStart       ....  0.200000
   # of expansion vecs  DIISMaxEq       ....     5
   Bias factor          DIISBfac        ....   1.050
   Max. coefficient     DIISMaxC        ....  10.000
 MO-DIIS                CNVKDIIS        .... off
 Trust-Rad. Augm. Hess. CNVTRAH         .... off
 SOSCF                  CNVSOSCF        .... on
   Start iteration      SOSCFMaxIt      ....   150
   Startup grad/error   SOSCFStart      ....  0.003300
   Hessian update       SOSCFHessUp     .... L-BFGS
 Level Shifting         CNVShift        .... on
   Level shift para.    LevelShift      ....    0.2500
   Turn off err/grad.   ShiftErr        ....    0.0010
 Zerner damping         CNVZerner       .... off
 Static damping         CNVDamp         .... on
   Fraction old density DampFac         ....    0.7000
   Max. Damping (<1)    DampMax         ....    0.9800
   Min. Damping (>=0)   DampMin         ....    0.0000
   Turn off err/grad.   DampErr         ....    0.1000

SCF Procedure:
 Maximum # iterations   MaxIter         ....   800
 SCF integral mode      SCFMode         .... Direct
   Integral package                     .... SHARK and LIBINT hybrid scheme
 Reset frequency        DirectResetFreq ....    20
 Integral Threshold     Thresh          ....  2.500e-11 Eh
 Primitive CutOff       TCut            ....  2.500e-12 Eh

Convergence Tolerance:
 Convergence Check Mode ConvCheckMode   .... Total+1el-Energy
 Convergence forced     ConvForced      .... 0
 Energy Change          TolE            ....  1.000e-08 Eh
 1-El. energy change                    ....  1.000e-05 Eh
 Orbital Gradient       TolG            ....  1.000e-05
 Orbital Rotation angle TolX            ....  1.000e-05
 DIIS Error             TolErr          ....  5.000e-07

--------------------------------
INITIAL GUESS: MINIMAL BASIS EHT
--------------------------------
The minimal basis has 111 functions
EHT matrix was diagonalized
Basis set overlap was calculated now projecting the orbitals
Using GuessMode=FMatrix for the initial guess
C*T matrix was formed
Effective Fockian was calculated
Effective Fockian was diagonalized
Initial density was built
                      ------------------
                      INITIAL GUESS DONE
                      ------------------
             **** ENERGY FILE WAS UPDATED (m1_01_Vitamin_B1-GFN2_006-B97-3C-TZ.en.tmp) ****
Finished Guess after   0.2 sec
Maximum memory used throughout the entire GUESS-calculation: 32.1 MB


           ************************************************************
           *        Program running with 16 parallel MPI-processes    *
           *              working on a common directory               *
           ************************************************************

-------------------------------------------------------------------------------------------
                                      ORCA LEAN-SCF
                              memory conserving SCF solver
-------------------------------------------------------------------------------------------

----------------------------------------D-I-I-S--------------------------------------------
Iteration    Energy (Eh)           Delta-E    RMSDP     MaxDP     DIISErr   Damp  Time(sec)
-------------------------------------------------------------------------------------------
               ***  Starting incremental Fock matrix formation  ***
    1    -1156.3838700710984995     0.00e+00  4.86e-03  1.74e-01  8.23e-01  0.700   0.5
Warning: op=0 Small HOMO/LUMO gap (  -0.033) - skipping pre-diagonalization
         Will do a full diagonalization
    2    -1157.3363454183654540    -9.52e-01  4.60e-03  2.09e-01  5.60e-01  0.700   0.6
    3    -1157.8764778436006964    -5.40e-01  2.54e-03  1.10e-01  3.80e-01  0.700   0.5
    4    -1158.2398384620655634    -3.63e-01  1.68e-03  5.98e-02  2.57e-01  0.700   0.5
                               ***Turning on AO-DIIS***
    5    -1158.4991979966698636    -2.59e-01  1.37e-03  5.26e-02  1.73e-01  0.700   0.5
    6    -1158.6803753129120196    -1.81e-01  9.80e-04  4.41e-02  1.21e-01  0.700   0.5
    7    -1158.8075102866810084    -1.27e-01  6.81e-04  3.24e-02  8.48e-02  0.700   0.5
    8    -1158.8968714657644341    -8.94e-02  1.61e-03  7.28e-02  5.99e-02  0.000   0.5
    9    -1159.1052173095154103    -2.08e-01  2.00e-04  1.22e-02  6.56e-03  0.000   0.5
   10    -1159.1055641659531830    -3.47e-04  7.41e-05  3.32e-03  4.49e-03  0.000   0.5
                              *** Initializing SOSCF ***
---------------------------------------S-O-S-C-F--------------------------------------
Iteration    Energy (Eh)           Delta-E    RMSDP     MaxDP     MaxGrad    Time(sec)
--------------------------------------------------------------------------------------
   11    -1159.1057081936046416    -1.44e-04  4.88e-05  1.85e-03  8.93e-04     0.5
               *** Restarting incremental Fock matrix formation ***
   12    -1159.1057406006434576    -3.24e-05  9.76e-05  3.02e-03  1.08e-03     0.6
   13    -1159.1057667245536322    -2.61e-05  7.47e-05  3.27e-03  2.41e-04     0.5
   14    -1159.1057601271795647     6.60e-06  4.58e-05  2.04e-03  3.99e-04     0.5
   15    -1159.1057719101254406    -1.18e-05  1.22e-05  4.10e-04  6.84e-05     0.5
   16    -1159.1057712590545634     6.51e-07  8.26e-06  3.54e-04  1.23e-04     0.5
   17    -1159.1057721156139451    -8.57e-07  3.93e-06  3.74e-04  1.23e-05     0.5
   18    -1159.1057720775329472     3.81e-08  2.67e-06  1.59e-04  2.84e-05     0.4
   19    -1159.1057721106267309    -3.31e-08  1.54e-06  5.81e-05  2.16e-06     0.4
                  *** Gradient check signals convergence ***

               *****************************************************
               *                     SUCCESS                       *
               *           SCF CONVERGED AFTER  19 CYCLES          *
               *****************************************************

             **** ENERGY FILE WAS UPDATED (m1_01_Vitamin_B1-GFN2_006-B97-3C-TZ.en.tmp) ****

----------------
TOTAL SCF ENERGY
----------------

Total Energy       :      -1159.10577211062673 Eh          -31540.87157 eV

Components:
Nuclear Repulsion  :       1475.75508685867089 Eh           40157.33747 eV
Electronic Energy  :      -2634.86085896929762 Eh          -71698.20904 eV
One Electron Energy:      -4496.51404673541128 Eh         -122356.36769 eV
Two Electron Energy:       1861.65318776611366 Eh           50658.15865 eV

Virial components:
Potential Energy   :      -2314.91267873834886 Eh          -62991.97644 eV
Kinetic Energy     :       1155.80690662772213 Eh           31451.10487 eV
Virial Ratio       :          2.00285416661208

DFT components:
N(Alpha)           :       70.000002061123 electrons
N(Beta)            :       70.000002061123 electrons
N(Total)           :      140.000004122245 electrons
E(XC)              :     -132.657182359109 Eh       

---------------
SCF CONVERGENCE
---------------

  Last Energy change         ...    3.3094e-08  Tolerance :   1.0000e-08
  Last MAX-Density change    ...    5.8086e-05  Tolerance :   1.0000e-07
  Last RMS-Density change    ...    1.5367e-06  Tolerance :   5.0000e-09
  Last DIIS Error            ...    8.9306e-04  Tolerance :   5.0000e-07
  Last Orbital Gradient      ...    2.1566e-06  Tolerance :   1.0000e-05
  Last Orbital Rotation      ...    8.8993e-06  Tolerance :   1.0000e-05


----------------
ORBITAL ENERGIES
----------------

  NO   OCC          E(Eh)            E(eV) 
   0   2.0000     -88.232211     -2400.9205 
   1   2.0000     -18.891530      -514.0647 
   2   2.0000     -14.237310      -387.4169 
   3   2.0000     -14.124422      -384.3451 
   4   2.0000     -14.082214      -383.1965 
   5   2.0000     -14.076476      -383.0404 
   6   2.0000     -10.125062      -275.5169 
   7   2.0000     -10.100662      -274.8530 
   8   2.0000     -10.100122      -274.8383 
   9   2.0000     -10.091457      -274.6025 
  10   2.0000     -10.088039      -274.5095 
  11   2.0000     -10.076649      -274.1996 
  12   2.0000     -10.058955      -273.7181 
  13   2.0000     -10.048357      -273.4297 
  14   2.0000     -10.046988      -273.3924 
  15   2.0000     -10.038502      -273.1615 
  16   2.0000     -10.031089      -272.9598 
  17   2.0000      -9.966575      -271.2043 
  18   2.0000      -7.921191      -215.5466 
  19   2.0000      -5.951791      -161.9565 
  20   2.0000      -5.945582      -161.7875 
  21   2.0000      -5.943734      -161.7372 
  22   2.0000      -1.114476       -30.3264 
  23   2.0000      -1.092596       -29.7311 
  24   2.0000      -1.029603       -28.0169 
  25   2.0000      -0.974925       -26.5291 
  26   2.0000      -0.948033       -25.7973 
  27   2.0000      -0.905845       -24.6493 
  28   2.0000      -0.893685       -24.3184 
  29   2.0000      -0.867505       -23.6060 
  30   2.0000      -0.840072       -22.8595 
  31   2.0000      -0.806166       -21.9369 
  32   2.0000      -0.784514       -21.3477 
  33   2.0000      -0.751246       -20.4424 
  34   2.0000      -0.741190       -20.1688 
  35   2.0000      -0.710251       -19.3269 
  36   2.0000      -0.692315       -18.8388 
  37   2.0000      -0.677582       -18.4379 
  38   2.0000      -0.667017       -18.1505 
  39   2.0000      -0.635675       -17.2976 
  40   2.0000      -0.625721       -17.0267 
  41   2.0000      -0.612784       -16.6747 
  42   2.0000      -0.604507       -16.4495 
  43   2.0000      -0.578730       -15.7480 
  44   2.0000      -0.575199       -15.6519 
  45   2.0000      -0.560944       -15.2641 
  46   2.0000      -0.555718       -15.1219 
  47   2.0000      -0.548433       -14.9236 
  48   2.0000      -0.530113       -14.4251 
  49   2.0000      -0.527481       -14.3535 
  50   2.0000      -0.520862       -14.1734 
  51   2.0000      -0.507311       -13.8046 
  52   2.0000      -0.506041       -13.7701 
  53   2.0000      -0.500366       -13.6157 
  54   2.0000      -0.493750       -13.4356 
  55   2.0000      -0.491664       -13.3788 
  56   2.0000      -0.484038       -13.1713 
  57   2.0000      -0.478288       -13.0149 
  58   2.0000      -0.457090       -12.4381 
  59   2.0000      -0.451370       -12.2824 
  60   2.0000      -0.435473       -11.8498 
  61   2.0000      -0.432674       -11.7737 
  62   2.0000      -0.418973       -11.4008 
  63   2.0000      -0.416162       -11.3243 
  64   2.0000      -0.374511       -10.1910 
  65   2.0000      -0.371353       -10.1050 
  66   2.0000      -0.361983        -9.8501 
  67   2.0000      -0.356799        -9.7090 
  68   2.0000      -0.322244        -8.7687 
  69   2.0000      -0.307816        -8.3761 
  70   0.0000      -0.228486        -6.2174 
  71   0.0000      -0.170776        -4.6471 
  72   0.0000      -0.163119        -4.4387 
  73   0.0000      -0.148014        -4.0277 
  74   0.0000      -0.142873        -3.8878 
  75   0.0000      -0.111589        -3.0365 
  76   0.0000      -0.107529        -2.9260 
  77   0.0000      -0.094795        -2.5795 
  78   0.0000      -0.085976        -2.3395 
  79   0.0000      -0.070574        -1.9204 
  80   0.0000      -0.061588        -1.6759 
*Only the first 10 virtual orbitals were printed.

                    ********************************
                    * MULLIKEN POPULATION ANALYSIS *
                    ********************************

-----------------------
MULLIKEN ATOMIC CHARGES
-----------------------
   0 S :    0.337124
   1 O :   -0.589889
   2 N :    0.088746
   3 N :   -0.158450
   4 N :   -0.087463
   5 N :   -0.642667
   6 C :   -0.005966
   7 C :   -0.534118
   8 C :   -0.082443
   9 C :   -0.230161
  10 C :   -0.049314
  11 C :   -0.153849
  12 C :   -0.527595
  13 C :   -0.218786
  14 C :    0.256468
  15 C :   -0.106735
  16 C :    0.096897
  17 C :   -0.549415
  18 H :    0.252780
  19 H :    0.242733
  20 H :    0.211958
  21 H :    0.219845
  22 H :    0.262296
  23 H :    0.213335
  24 H :    0.227899
  25 H :    0.197960
  26 H :    0.195196
  27 H :    0.202512
  28 H :    0.169881
  29 H :    0.346569
  30 H :    0.368380
  31 H :    0.455551
  32 H :    0.194845
  33 H :    0.203186
  34 H :    0.192687
Sum of atomic charges:    1.0000000

--------------------------------
MULLIKEN REDUCED ORBITAL CHARGES
--------------------------------
  0 S s       :     5.895945  s :     5.895945
      pz      :     3.230030  p :     9.628088
      px      :     3.026612
      py      :     3.371446
      dz2     :     0.040689  d :     0.138843
      dxz     :     0.020792
      dyz     :     0.018274
      dx2y2   :     0.021304
      dxy     :     0.037784

  1 O s       :     3.809524  s :     3.809524
      pz      :     1.378688  p :     4.745810
      px      :     1.620583
      py      :     1.746539
      dz2     :     0.007498  d :     0.034555
      dxz     :     0.013767
      dyz     :     0.003757
      dx2y2   :     0.003214
      dxy     :     0.006319

  2 N s       :     3.265493  s :     3.265493
      pz      :     1.128549  p :     3.585118
      px      :     1.140381
      py      :     1.316189
      dz2     :     0.014576  d :     0.060642
      dxz     :     0.014703
      dyz     :     0.011799
      dx2y2   :     0.009817
      dxy     :     0.009747

  3 N s       :     3.474633  s :     3.474633
      pz      :     1.285740  p :     3.638829
      px      :     1.158158
      py      :     1.194931
      dz2     :     0.009326  d :     0.044988
      dxz     :     0.008637
      dyz     :     0.006841
      dx2y2   :     0.011656
      dxy     :     0.008529

  4 N s       :     3.480827  s :     3.480827
      pz      :     1.250814  p :     3.560512
      px      :     1.302388
      py      :     1.007310
      dz2     :     0.009161  d :     0.046124
      dxz     :     0.006318
      dyz     :     0.010708
      dx2y2   :     0.008369
      dxy     :     0.011568

  5 N s       :     3.456319  s :     3.456319
      pz      :     1.448946  p :     4.152847
      px      :     1.349497
      py      :     1.354403
      dz2     :     0.006603  d :     0.033501
      dxz     :     0.006301
      dyz     :     0.006333
      dx2y2   :     0.003847
      dxy     :     0.010417

  6 C s       :     3.109890  s :     3.109890
      pz      :     0.974245  p :     2.835711
      px      :     0.940571
      py      :     0.920895
      dz2     :     0.011758  d :     0.060364
      dxz     :     0.019133
      dyz     :     0.010752
      dx2y2   :     0.010801
      dxy     :     0.007920

  7 C s       :     3.415717  s :     3.415717
      pz      :     1.220251  p :     3.062424
      px      :     0.924305
      py      :     0.917868
      dz2     :     0.010255  d :     0.055977
      dxz     :     0.011435
      dyz     :     0.007321
      dx2y2   :     0.012137
      dxy     :     0.014830

  8 C s       :     3.179118  s :     3.179118
      pz      :     0.787641  p :     2.857492
      px      :     0.984516
      py      :     1.085335
      dz2     :     0.010496  d :     0.045833
      dxz     :     0.011405
      dyz     :     0.006527
      dx2y2   :     0.008577
      dxy     :     0.008828

  9 C s       :     3.133966  s :     3.133966
      pz      :     1.006265  p :     3.051996
      px      :     0.901214
      py      :     1.144517
      dz2     :     0.005012  d :     0.044200
      dxz     :     0.010681
      dyz     :     0.010576
      dx2y2   :     0.010315
      dxy     :     0.007616

 10 C s       :     3.126560  s :     3.126560
      pz      :     1.008636  p :     2.878777
      px      :     1.058529
      py      :     0.811611
      dz2     :     0.007351  d :     0.043977
      dxz     :     0.006499
      dyz     :     0.011420
      dx2y2   :     0.009359
      dxy     :     0.009348

 11 C s       :     3.186518  s :     3.186518
      pz      :     0.915996  p :     2.915534
      px      :     1.025371
      py      :     0.974167
      dz2     :     0.013177  d :     0.051797
      dxz     :     0.014715
      dyz     :     0.009960
      dx2y2   :     0.008278
      dxy     :     0.005667

 12 C s       :     3.269551  s :     3.269551
      pz      :     0.950637  p :     3.220599
      px      :     1.153290
      py      :     1.116673
      dz2     :     0.009385  d :     0.037445
      dxz     :     0.008556
      dyz     :     0.006243
      dx2y2   :     0.009705
      dxy     :     0.003555

 13 C s       :     3.296723  s :     3.296723
      pz      :     0.836298  p :     2.857951
      px      :     1.013326
      py      :     1.008328
      dz2     :     0.010868  d :     0.064112
      dxz     :     0.015821
      dyz     :     0.013832
      dx2y2   :     0.013035
      dxy     :     0.010555

 14 C s       :     3.010984  s :     3.010984
      pz      :     0.931366  p :     2.647778
      px      :     0.823849
      py      :     0.892563
      dz2     :     0.016090  d :     0.084770
      dxz     :     0.011910
      dyz     :     0.019884
      dx2y2   :     0.020552
      dxy     :     0.016334

 15 C s       :     3.187405  s :     3.187405
      pz      :     0.923500  p :     2.858472
      px      :     0.951668
      py      :     0.983304
      dz2     :     0.007462  d :     0.060858
      dxz     :     0.006694
      dyz     :     0.018843
      dx2y2   :     0.013570
      dxy     :     0.014289

 16 C s       :     3.149602  s :     3.149602
      pz      :     0.879853  p :     2.669264
      px      :     0.864290
      py      :     0.925121
      dz2     :     0.017506  d :     0.084237
      dxz     :     0.013726
      dyz     :     0.018739
      dx2y2   :     0.017422
      dxy     :     0.016844

 17 C s       :     3.305513  s :     3.305513
      pz      :     1.139300  p :     3.207675
      px      :     1.106719
      py      :     0.961657
      dz2     :     0.007701  d :     0.036228
      dxz     :     0.005215
      dyz     :     0.007582
      dx2y2   :     0.009536
      dxy     :     0.006194

 18 H s       :     0.747220  s :     0.747220

 19 H s       :     0.757267  s :     0.757267

 20 H s       :     0.788042  s :     0.788042

 21 H s       :     0.780155  s :     0.780155

 22 H s       :     0.737704  s :     0.737704

 23 H s       :     0.786665  s :     0.786665

 24 H s       :     0.772101  s :     0.772101

 25 H s       :     0.802040  s :     0.802040

 26 H s       :     0.804804  s :     0.804804

 27 H s       :     0.797488  s :     0.797488

 28 H s       :     0.830119  s :     0.830119

 29 H s       :     0.653431  s :     0.653431

 30 H s       :     0.631620  s :     0.631620

 31 H s       :     0.544449  s :     0.544449

 32 H s       :     0.805155  s :     0.805155

 33 H s       :     0.796814  s :     0.796814

 34 H s       :     0.807313  s :     0.807313



                     *******************************
                     * LOEWDIN POPULATION ANALYSIS *
                     *******************************

----------------------
LOEWDIN ATOMIC CHARGES
----------------------
   0 S :    0.864263
   1 O :   -0.865708
   2 N :   -0.044240
   3 N :   -0.189448
   4 N :   -0.192190
   5 N :   -0.413201
   6 C :   -0.018349
   7 C :   -0.159700
   8 C :   -0.216701
   9 C :   -0.248887
  10 C :   -0.166828
  11 C :   -0.269081
  12 C :   -0.392557
  13 C :    0.027135
  14 C :    0.095832
  15 C :   -0.039752
  16 C :    0.078467
  17 C :   -0.410333
  18 H :    0.188805
  19 H :    0.184062
  20 H :    0.188830
  21 H :    0.196139
  22 H :    0.200844
  23 H :    0.186910
  24 H :    0.196271
  25 H :    0.185136
  26 H :    0.176430
  27 H :    0.186607
  28 H :    0.162283
  29 H :    0.286472
  30 H :    0.302538
  31 H :    0.377534
  32 H :    0.176200
  33 H :    0.188290
  34 H :    0.177925

-------------------------------
LOEWDIN REDUCED ORBITAL CHARGES
-------------------------------
  0 S s       :     5.322106  s :     5.322106
      pz      :     3.235663  p :     9.648265
      px      :     3.055924
      py      :     3.356677
      dz2     :     0.048516  d :     0.165367
      dxz     :     0.022503
      dyz     :     0.019652
      dx2y2   :     0.025777
      dxy     :     0.048919

  1 O s       :     3.550626  s :     3.550626
      pz      :     1.441511  p :     4.884019
      px      :     1.667283
      py      :     1.775225
      dz2     :     0.097763  d :     0.431062
      dxz     :     0.097251
      dyz     :     0.065331
      dx2y2   :     0.084195
      dxy     :     0.086521

  2 N s       :     3.064761  s :     3.064761
      pz      :     1.271763  p :     3.858779
      px      :     1.275609
      py      :     1.311407
      dz2     :     0.029643  d :     0.120700
      dxz     :     0.030251
      dyz     :     0.024362
      dx2y2   :     0.017603
      dxy     :     0.018840

  3 N s       :     3.206335  s :     3.206335
      pz      :     1.346855  p :     3.900102
      px      :     1.231670
      py      :     1.321577
      dz2     :     0.015374  d :     0.083011
      dxz     :     0.016803
      dyz     :     0.011631
      dx2y2   :     0.022349
      dxy     :     0.016853

  4 N s       :     3.220145  s :     3.220145
      pz      :     1.339071  p :     3.885792
      px      :     1.350901
      py      :     1.195820
      dz2     :     0.015255  d :     0.086253
      dxz     :     0.009812
      dyz     :     0.021919
      dx2y2   :     0.017253
      dxy     :     0.022013

  5 N s       :     3.188561  s :     3.188561
      pz      :     1.460243  p :     4.168912
      px      :     1.370937
      py      :     1.337732
      dz2     :     0.010749  d :     0.055728
      dxz     :     0.011558
      dyz     :     0.010002
      dx2y2   :     0.007148
      dxy     :     0.016272

  6 C s       :     2.837154  s :     2.837154
      pz      :     1.052801  p :     3.053235
      px      :     0.970884
      py      :     1.029550
      dz2     :     0.024002  d :     0.127960
      dxz     :     0.042267
      dyz     :     0.021455
      dx2y2   :     0.022752
      dxy     :     0.017484

  7 C s       :     2.904742  s :     2.904742
      pz      :     1.136488  p :     3.151942
      px      :     1.007437
      py      :     1.008017
      dz2     :     0.017947  d :     0.103016
      dxz     :     0.019817
      dyz     :     0.012438
      dx2y2   :     0.022871
      dxy     :     0.029944

  8 C s       :     2.919990  s :     2.919990
      pz      :     1.049389  p :     3.201841
      px      :     1.085856
      py      :     1.066597
      dz2     :     0.024254  d :     0.094870
      dxz     :     0.024012
      dyz     :     0.013933
      dx2y2   :     0.015450
      dxy     :     0.017220

  9 C s       :     2.918588  s :     2.918588
      pz      :     1.089877  p :     3.251987
      px      :     1.039215
      py      :     1.122895
      dz2     :     0.008456  d :     0.078313
      dxz     :     0.020801
      dyz     :     0.017044
      dx2y2   :     0.018556
      dxy     :     0.013456

 10 C s       :     2.860556  s :     2.860556
      pz      :     1.100754  p :     3.212811
      px      :     1.098817
      py      :     1.013240
      dz2     :     0.015024  d :     0.093462
      dxz     :     0.014085
      dyz     :     0.023802
      dx2y2   :     0.020853
      dxy     :     0.019697

 11 C s       :     2.969932  s :     2.969932
      pz      :     1.021237  p :     3.190946
      px      :     1.119603
      py      :     1.050106
      dz2     :     0.029999  d :     0.108203
      dxz     :     0.027294
      dyz     :     0.022043
      dx2y2   :     0.015131
      dxy     :     0.013735

 12 C s       :     2.963085  s :     2.963085
      pz      :     1.052513  p :     3.368218
      px      :     1.166213
      py      :     1.149492
      dz2     :     0.016904  d :     0.061254
      dxz     :     0.013983
      dyz     :     0.011248
      dx2y2   :     0.014403
      dxy     :     0.004716

 13 C s       :     2.870275  s :     2.870275
      pz      :     0.931762  p :     2.974772
      px      :     1.033764
      py      :     1.009246
      dz2     :     0.021180  d :     0.127818
      dxz     :     0.034766
      dyz     :     0.027602
      dx2y2   :     0.024000
      dxy     :     0.020270

 14 C s       :     2.807571  s :     2.807571
      pz      :     0.951114  p :     2.916657
      px      :     0.935040
      py      :     1.030503
      dz2     :     0.032148  d :     0.179940
      dxz     :     0.027405
      dyz     :     0.041617
      dx2y2   :     0.044614
      dxy     :     0.034157

 15 C s       :     2.880689  s :     2.880689
      pz      :     1.007774  p :     3.034795
      px      :     0.989386
      py      :     1.037635
      dz2     :     0.015386  d :     0.124267
      dxz     :     0.013465
      dyz     :     0.036458
      dx2y2   :     0.027463
      dxy     :     0.031495

 16 C s       :     2.827046  s :     2.827046
      pz      :     0.948001  p :     2.915085
      px      :     0.930137
      py      :     1.036948
      dz2     :     0.035612  d :     0.179401
      dxz     :     0.035664
      dyz     :     0.038519
      dx2y2   :     0.035361
      dxy     :     0.034245

 17 C s       :     2.980947  s :     2.980947
      pz      :     1.159548  p :     3.370726
      px      :     1.144686
      py      :     1.066492
      dz2     :     0.011977  d :     0.058660
      dxz     :     0.007212
      dyz     :     0.012369
      dx2y2   :     0.016252
      dxy     :     0.010850

 18 H s       :     0.811195  s :     0.811195

 19 H s       :     0.815938  s :     0.815938

 20 H s       :     0.811170  s :     0.811170

 21 H s       :     0.803861  s :     0.803861

 22 H s       :     0.799156  s :     0.799156

 23 H s       :     0.813090  s :     0.813090

 24 H s       :     0.803729  s :     0.803729

 25 H s       :     0.814864  s :     0.814864

 26 H s       :     0.823570  s :     0.823570

 27 H s       :     0.813393  s :     0.813393

 28 H s       :     0.837717  s :     0.837717

 29 H s       :     0.713528  s :     0.713528

 30 H s       :     0.697462  s :     0.697462

 31 H s       :     0.622466  s :     0.622466

 32 H s       :     0.823800  s :     0.823800

 33 H s       :     0.811710  s :     0.811710

 34 H s       :     0.822075  s :     0.822075



                      *****************************
                      * MAYER POPULATION ANALYSIS *
                      *****************************

  NA   - Mulliken gross atomic population
  ZA   - Total nuclear charge
  QA   - Mulliken gross atomic charge
  VA   - Mayer's total valence
  BVA  - Mayer's bonded valence
  FA   - Mayer's free valence

  ATOM       NA         ZA         QA         VA         BVA        FA
  0 S     15.6629    16.0000     0.3371     2.7625     2.7625    -0.0000
  1 O      8.5899     8.0000    -0.5899     1.7647     1.7647    -0.0000
  2 N      6.9113     7.0000     0.0887     3.3656     3.3656    -0.0000
  3 N      7.1584     7.0000    -0.1584     3.1576     3.1576     0.0000
  4 N      7.0875     7.0000    -0.0875     3.1229     3.1229     0.0000
  5 N      7.6427     7.0000    -0.6427     2.9919     2.9919     0.0000
  6 C      6.0060     6.0000    -0.0060     4.0921     4.0921    -0.0000
  7 C      6.5341     6.0000    -0.5341     3.5951     3.5951     0.0000
  8 C      6.0824     6.0000    -0.0824     3.5663     3.5663    -0.0000
  9 C      6.2302     6.0000    -0.2302     3.6060     3.6060     0.0000
 10 C      6.0493     6.0000    -0.0493     3.4283     3.4283    -0.0000
 11 C      6.1538     6.0000    -0.1538     3.8193     3.8193    -0.0000
 12 C      6.5276     6.0000    -0.5276     3.8203     3.8203     0.0000
 13 C      6.2188     6.0000    -0.2188     3.7762     3.7762     0.0000
 14 C      5.7435     6.0000     0.2565     3.9765     3.9765     0.0000
 15 C      6.1067     6.0000    -0.1067     3.9824     3.9824     0.0000
 16 C      5.9031     6.0000     0.0969     3.9591     3.9591     0.0000
 17 C      6.5494     6.0000    -0.5494     3.7134     3.7134     0.0000
 18 H      0.7472     1.0000     0.2528     0.8939     0.8939     0.0000
 19 H      0.7573     1.0000     0.2427     0.9207     0.9207     0.0000
 20 H      0.7880     1.0000     0.2120     0.9468     0.9468     0.0000
 21 H      0.7802     1.0000     0.2198     0.9499     0.9499     0.0000
 22 H      0.7377     1.0000     0.2623     0.9061     0.9061    -0.0000
 23 H      0.7867     1.0000     0.2133     0.9393     0.9393    -0.0000
 24 H      0.7721     1.0000     0.2279     0.9322     0.9322     0.0000
 25 H      0.8020     1.0000     0.1980     0.9489     0.9489     0.0000
 26 H      0.8048     1.0000     0.1952     0.9252     0.9252     0.0000
 27 H      0.7975     1.0000     0.2025     0.9363     0.9363     0.0000
 28 H      0.8301     1.0000     0.1699     0.9426     0.9426    -0.0000
 29 H      0.6534     1.0000     0.3466     0.8566     0.8566     0.0000
 30 H      0.6316     1.0000     0.3684     0.8638     0.8638     0.0000
 31 H      0.5444     1.0000     0.4556     0.7679     0.7679    -0.0000
 32 H      0.8052     1.0000     0.1948     0.9528     0.9528     0.0000
 33 H      0.7968     1.0000     0.2032     0.9453     0.9453     0.0000
 34 H      0.8073     1.0000     0.1927     0.9521     0.9521     0.0000

  Mayer bond orders larger than 0.100000
B(  0-S ,  8-C ) :   1.2247 B(  0-S , 11-C ) :   1.3223 B(  1-O , 13-C ) :   0.9214 
B(  1-O , 31-H ) :   0.7461 B(  2-N ,  6-C ) :   1.2373 B(  2-N ,  7-C ) :   0.8377 
B(  2-N , 11-C ) :   1.3737 B(  3-N , 14-C ) :   1.5188 B(  3-N , 16-C ) :   1.5271 
B(  4-N , 15-C ) :   1.6159 B(  4-N , 16-C ) :   1.4542 B(  5-N , 14-C ) :   1.1880 
B(  5-N , 29-H ) :   0.8339 B(  5-N , 30-H ) :   0.8089 B(  6-C ,  8-C ) :   1.5772 
[...]
 39:    745.43   0.005521   27.90  0.002311  ( 0.025821 -0.034620 -0.021121)
 40:    754.05   0.001707    8.62  0.000706  ( 0.017093 -0.019033  0.007200)
 41:    771.73   0.002549   12.88  0.001031  ( 0.016104  0.000368  0.027768)
 42:    799.80   0.000442    2.23  0.000172  ( 0.011729  0.000594  0.005862)
 43:    804.79   0.000484    2.45  0.000188  ( 0.011284  0.005455  0.005536)
 44:    887.07   0.002904   14.67  0.001022  (-0.007982 -0.022734  0.021000)
 45:    904.71   0.001365    6.90  0.000471  ( 0.010764  0.000065  0.018844)
 46:    927.10   0.000172    0.87  0.000058  ( 0.002931  0.000362  0.007022)
 47:    932.71   0.000166    0.84  0.000055  ( 0.001861  0.007169 -0.000780)
 48:    959.19   0.001251    6.32  0.000407  ( 0.011995 -0.013878 -0.008388)
 49:    986.92   0.001226    6.20  0.000388  ( 0.012507  0.008487 -0.012623)
 50:   1015.67   0.001338    6.76  0.000411  (-0.006814 -0.018616  0.004260)
 51:   1021.52   0.003725   18.83  0.001138  ( 0.005146 -0.018170  0.027953)
 52:   1050.04   0.000348    1.76  0.000104  ( 0.000440 -0.004494 -0.009119)
 53:   1056.51   0.003108   15.71  0.000918  (-0.005477 -0.026437 -0.013751)
 54:   1063.20   0.000260    1.31  0.000076  (-0.000424 -0.000924  0.008676)
 55:   1077.68   0.007881   39.83  0.002282  ( 0.005214 -0.026504  0.039401)
 56:   1091.03   0.002820   14.25  0.000807  (-0.003218 -0.021012  0.018837)
 57:   1118.51   0.001123    5.68  0.000313  ( 0.011719 -0.005432 -0.012107)
 58:   1181.85   0.005670   28.65  0.001497  (-0.012691 -0.033539  0.014529)
 59:   1189.13   0.000268    1.35  0.000070  ( 0.000291  0.007929 -0.002718)
 60:   1207.98   0.003404   17.20  0.000879  ( 0.009418 -0.014081  0.024339)
 61:   1226.30   0.000497    2.51  0.000126  (-0.008636 -0.004510  0.005617)
 62:   1248.75   0.000761    3.85  0.000190  (-0.000767  0.010506 -0.008905)
 63:   1272.09   0.004664   23.57  0.001144  (-0.010247  0.027961 -0.016043)
 64:   1278.48   0.008629   43.61  0.002106  (-0.004076 -0.044874  0.008719)
 65:   1307.28   0.001030    5.21  0.000246  ( 0.004392 -0.013336  0.006983)
 66:   1310.66   0.005470   27.64  0.001302  ( 0.017029 -0.024218  0.020636)
 67:   1326.77   0.001104    5.58  0.000260  (-0.009325 -0.012959 -0.002182)
 68:   1360.45   0.000885    4.47  0.000203  (-0.001258  0.013610  0.004016)
 69:   1384.03   0.002171   10.97  0.000489  (-0.003300  0.019385  0.010137)
 70:   1402.69   0.000168    0.85  0.000037  ( 0.001848 -0.005696  0.001251)
 71:   1404.36   0.001017    5.14  0.000226  ( 0.006783 -0.013284  0.001854)
 72:   1425.12   0.001462    7.39  0.000320  (-0.006946 -0.004306 -0.015916)
 73:   1434.08   0.011263   56.92  0.002451  (-0.016176  0.046372  0.006245)
 74:   1435.59   0.000992    5.01  0.000216  ( 0.014560  0.001874  0.000362)
 75:   1463.18   0.027227  137.59  0.005807  (-0.027612  0.066597  0.024684)
 76:   1466.90   0.002618   13.23  0.000557  ( 0.001861 -0.016315 -0.016950)
 77:   1470.00   0.006400   32.34  0.001359  ( 0.025447  0.011844 -0.023890)
 78:   1483.95   0.017674   89.32  0.003717  (-0.049832  0.026517  0.023027)
 79:   1487.90   0.002620   13.24  0.000550  (-0.003613 -0.005950  0.022386)
 80:   1488.92   0.003770   19.05  0.000790  (-0.009743 -0.022105  0.014371)
 81:   1493.31   0.008926   45.11  0.001865  (-0.035930 -0.023871 -0.002127)
 82:   1516.08   0.002341   11.83  0.000482  ( 0.020978  0.002117 -0.006108)
 83:   1522.72   0.001442    7.29  0.000296  ( 0.011239 -0.001585 -0.012914)
 84:   1570.09   0.044680  225.80  0.008880  (-0.051157 -0.051975  0.059682)
 85:   1606.97   0.007527   38.04  0.001462  ( 0.022752 -0.025199  0.017581)
 86:   1611.19   0.033653  170.07  0.006518  (-0.035903  0.066252  0.028980)
 87:   1671.03   0.043390  219.28  0.008103  ( 0.079353 -0.000836 -0.042490)
 88:   2974.39   0.007099   35.87  0.000745  ( 0.020618 -0.016882  0.005889)
 89:   3009.30   0.001230    6.21  0.000128  (-0.010947 -0.002551 -0.001087)
 90:   3013.94   0.000235    1.19  0.000024  ( 0.001664  0.003738  0.002750)
 91:   3017.71   0.003281   16.58  0.000339  ( 0.013147 -0.012859  0.001044)
 92:   3019.88   0.000840    4.24  0.000087  (-0.006235  0.002451  0.006473)
 93:   3026.61   0.006340   32.04  0.000654  (-0.013928 -0.017794 -0.011963)
 94:   3060.92   0.000460    2.33  0.000047  (-0.002301 -0.001727 -0.006218)
 95:   3080.68   0.000364    1.84  0.000037  ( 0.003020 -0.005186  0.000907)
 96:   3083.86   0.007383   37.31  0.000747  ( 0.007737  0.023030 -0.012522)
 97:   3084.62   0.001083    5.47  0.000110  (-0.004766  0.005796 -0.007296)
 98:   3085.88   0.001492    7.54  0.000151  (-0.009929  0.004665 -0.005524)
 99:   3132.92   0.001014    5.13  0.000101  ( 0.005466  0.004257 -0.007283)
100:   3136.66   0.000758    3.83  0.000075  (-0.007108 -0.002867 -0.004084)
101:   3225.15   0.003410   17.23  0.000330  ( 0.012635  0.000577  0.013037)
102:   3521.96   0.012761   64.49  0.001131  (-0.024829 -0.013371  0.018314)
103:   3636.28   0.004877   24.65  0.000419  (-0.006443  0.018312 -0.006456)
104:   3759.17   0.013726   69.37  0.001139  (-0.019754 -0.006052  0.026695)

* The epsilon (eps) is given for a Dirac delta lineshape.
** The dipole moment derivative (T) already includes vibrational overlap.

The first frequency considered to be a vibration is 6
The total number of vibrations considered is 99


--------------------------
THERMOCHEMISTRY AT 298.15K
--------------------------

Temperature         ...   298.15 K
Pressure            ...     1.00 atm
Total Mass          ...   265.35 AMU
Quasi RRHO          ...     True
Cut-Off Frequency   ...     1.00 cm^-1

Throughout the following assumptions are being made:
  (1) The electronic state is orbitally nondegenerate
  (2) There are no thermally accessible electronically excited states
  (3) Hindered rotations indicated by low frequency modes are not
      treated as such but are treated as vibrations and this may
      cause some error
  (4) All equations used are the standard statistical mechanics
      equations for an ideal gas
  (5) All vibrations are strictly harmonic

freq.      20.69  E(vib)   ...       0.56 
freq.      23.81  E(vib)   ...       0.56 
freq.      37.70  E(vib)   ...       0.54 
freq.      39.86  E(vib)   ...       0.54 
freq.      55.22  E(vib)   ...       0.52 
freq.      93.69  E(vib)   ...       0.47 
freq.     122.03  E(vib)   ...       0.44 
freq.     140.20  E(vib)   ...       0.41 
freq.     144.24  E(vib)   ...       0.41 
freq.     195.41  E(vib)   ...       0.36 
freq.     200.28  E(vib)   ...       0.35 
freq.     205.20  E(vib)   ...       0.35 
freq.     237.03  E(vib)   ...       0.32 
freq.     272.74  E(vib)   ...       0.29 
freq.     290.93  E(vib)   ...       0.27 
freq.     307.90  E(vib)   ...       0.26 
freq.     323.20  E(vib)   ...       0.25 
freq.     329.12  E(vib)   ...       0.24 
freq.     343.14  E(vib)   ...       0.23 
freq.     403.79  E(vib)   ...       0.19 
freq.     410.47  E(vib)   ...       0.19 
freq.     433.65  E(vib)   ...       0.17 
freq.     461.48  E(vib)   ...       0.16 
freq.     495.02  E(vib)   ...       0.14 
freq.     505.56  E(vib)   ...       0.14 
freq.     529.67  E(vib)   ...       0.13 
freq.     577.34  E(vib)   ...       0.11 
freq.     585.19  E(vib)   ...       0.11 
freq.     600.11  E(vib)   ...       0.10 
freq.     613.81  E(vib)   ...       0.10 
freq.     643.77  E(vib)   ...       0.09 
freq.     653.86  E(vib)   ...       0.08 
freq.     689.44  E(vib)   ...       0.07 
freq.     745.43  E(vib)   ...       0.06 
freq.     754.05  E(vib)   ...       0.06 
freq.     771.73  E(vib)   ...       0.05 
freq.     799.80  E(vib)   ...       0.05 
freq.     804.79  E(vib)   ...       0.05 
freq.     887.07  E(vib)   ...       0.04 
freq.     904.71  E(vib)   ...       0.03 
freq.     927.10  E(vib)   ...       0.03 
freq.     932.71  E(vib)   ...       0.03 
freq.     959.19  E(vib)   ...       0.03 
freq.     986.92  E(vib)   ...       0.02 
freq.    1015.67  E(vib)   ...       0.02 
freq.    1021.52  E(vib)   ...       0.02 
freq.    1050.04  E(vib)   ...       0.02 
freq.    1056.51  E(vib)   ...       0.02 
freq.    1063.20  E(vib)   ...       0.02 
freq.    1077.68  E(vib)   ...       0.02 
freq.    1091.03  E(vib)   ...       0.02 
freq.    1118.51  E(vib)   ...       0.01 
freq.    1181.85  E(vib)   ...       0.01 
freq.    1189.13  E(vib)   ...       0.01 
freq.    1207.98  E(vib)   ...       0.01 
freq.    1226.30  E(vib)   ...       0.01 
freq.    1248.75  E(vib)   ...       0.01 
freq.    1272.09  E(vib)   ...       0.01 
freq.    1278.48  E(vib)   ...       0.01 
freq.    1307.28  E(vib)   ...       0.01 
freq.    1310.66  E(vib)   ...       0.01 
freq.    1326.77  E(vib)   ...       0.01 
freq.    1360.45  E(vib)   ...       0.01 
freq.    1384.03  E(vib)   ...       0.00 
freq.    1402.69  E(vib)   ...       0.00 
freq.    1404.36  E(vib)   ...       0.00 
freq.    1425.12  E(vib)   ...       0.00 
freq.    1434.08  E(vib)   ...       0.00 
freq.    1435.59  E(vib)   ...       0.00 
freq.    1463.18  E(vib)   ...       0.00 
freq.    1466.90  E(vib)   ...       0.00 
freq.    1470.00  E(vib)   ...       0.00 
freq.    1483.95  E(vib)   ...       0.00 
freq.    1487.90  E(vib)   ...       0.00 
freq.    1488.92  E(vib)   ...       0.00 
freq.    1493.31  E(vib)   ...       0.00 
freq.    1516.08  E(vib)   ...       0.00 
freq.    1522.72  E(vib)   ...       0.00 
freq.    1570.09  E(vib)   ...       0.00 
freq.    1606.97  E(vib)   ...       0.00 
freq.    1611.19  E(vib)   ...       0.00 
freq.    1671.03  E(vib)   ...       0.00 
freq.    2974.39  E(vib)   ...       0.00 
freq.    3009.30  E(vib)   ...       0.00 
freq.    3013.94  E(vib)   ...       0.00 
freq.    3017.71  E(vib)   ...       0.00 
freq.    3019.88  E(vib)   ...       0.00 
freq.    3026.61  E(vib)   ...       0.00 
freq.    3060.92  E(vib)   ...       0.00 
freq.    3080.68  E(vib)   ...       0.00 
freq.    3083.86  E(vib)   ...       0.00 
freq.    3084.62  E(vib)   ...       0.00 
freq.    3085.88  E(vib)   ...       0.00 
freq.    3132.92  E(vib)   ...       0.00 
freq.    3136.66  E(vib)   ...       0.00 
freq.    3225.15  E(vib)   ...       0.00 
freq.    3521.96  E(vib)   ...       0.00 
freq.    3636.28  E(vib)   ...       0.00 
freq.    3759.17  E(vib)   ...       0.00 

------------
INNER ENERGY
------------

The inner energy is: U= E(el) + E(ZPE) + E(vib) + E(rot) + E(trans)
    E(el)   - is the total energy from the electronic structure calculation
              = E(kin-el) + E(nuc-el) + E(el-el) + E(nuc-nuc)
    E(ZPE)  - the the zero temperature vibrational energy from the frequency calculation
    E(vib)  - the the finite temperature correction to E(ZPE) due to population
              of excited vibrational states
    E(rot)  - is the rotational thermal energy
    E(trans)- is the translational thermal energy

Summary of contributions to the inner energy U:
Electronic energy                ...  -1159.31691600 Eh
Zero point energy                ...      0.28493272 Eh     178.80 kcal/mol
Thermal vibrational correction   ...      0.01574181 Eh       9.88 kcal/mol
Thermal rotational correction    ...      0.00141627 Eh       0.89 kcal/mol
Thermal translational correction ...      0.00141627 Eh       0.89 kcal/mol
-----------------------------------------------------------------------
Total thermal energy                  -1159.01340893 Eh


Summary of corrections to the electronic energy:
(perhaps to be used in another calculation)
Total thermal correction                  0.01857436 Eh      11.66 kcal/mol
Non-thermal (ZPE) correction              0.28493272 Eh     178.80 kcal/mol
-----------------------------------------------------------------------
Total correction                          0.30350708 Eh     190.45 kcal/mol


--------
ENTHALPY
--------

The enthalpy is H = U + kB*T
                kB is Boltzmann's constant
Total thermal energy              ...  -1159.01340893 Eh 
Thermal Enthalpy correction       ...      0.00094421 Eh       0.59 kcal/mol
-----------------------------------------------------------------------
Total Enthalpy                    ...  -1159.01246472 Eh


Note: Only C1 symmetry has been detected, increase convergence thresholds 
      if your molecule has a higher symmetry. Symmetry factor of 1.0 is   
      used for the rotational entropy correction. 
 

Note: Rotational entropy computed according to Herzberg 
Infrared and Raman Spectra, Chapter V,1, Van Nostrand Reinhold, 1945 
Point Group:  C1, Symmetry Number:   1  
Rotational constants in cm-1:     0.024477     0.006716     0.006193 

Vibrational entropy computed according to the QRRHO of S. Grimme
Chem.Eur.J. 2012 18 9955 using a reference frequency of 100.0 cm-1


-------
ENTROPY
-------

The entropy contributions are T*S = T*(S(el)+S(vib)+S(rot)+S(trans))
     S(el)   - electronic entropy
     S(vib)  - vibrational entropy
     S(rot)  - rotational entropy
     S(trans)- translational entropy
The entropies will be listed as multiplied by the temperature to get
units of energy

Electronic entropy                ...      0.00000000 Eh      0.00 kcal/mol
Vibrational entropy               ...      0.02818458 Eh     17.69 kcal/mol
Rotational entropy                ...      0.01602449 Eh     10.06 kcal/mol
Translational entropy             ...      0.02025338 Eh     12.71 kcal/mol
-----------------------------------------------------------------------
Final entropy term                ...      0.06446245 Eh     40.45 kcal/mol

In case the symmetry of your molecule has not been determined correctly
or in case you have a reason to use a different symmetry number we print 
out the resulting rotational entropy values for sn=1,12:

 non-linear molecules -----------------------------------
|  sn= 1 | S(rot)=       0.01602449 Eh     10.06 kcal/mol|
|  sn= 2 | S(rot)=       0.01537003 Eh      9.64 kcal/mol|
|  sn= 3 | S(rot)=       0.01498720 Eh      9.40 kcal/mol|
|  sn= 4 | S(rot)=       0.01471558 Eh      9.23 kcal/mol|
|  sn= 5 | S(rot)=       0.01450489 Eh      9.10 kcal/mol|
|  sn= 6 | S(rot)=       0.01433275 Eh      8.99 kcal/mol|
|  sn= 7 | S(rot)=       0.01418720 Eh      8.90 kcal/mol|
|  sn= 8 | S(rot)=       0.01406112 Eh      8.82 kcal/mol|
|  sn= 9 | S(rot)=       0.01394991 Eh      8.75 kcal/mol|
|  sn=10 | S(rot)=       0.01385043 Eh      8.69 kcal/mol|
|  sn=11 | S(rot)=       0.01376044 Eh      8.63 kcal/mol|
|  sn=12 | S(rot)=       0.01367829 Eh      8.58 kcal/mol|
 linear molecules ---------------------------------------
|  Dinfh | S(rot)=       0.01012634 Eh      6.35 kcal/mol|
|  Cinfv | S(rot)=       0.01078080 Eh      6.77 kcal/mol|
 --------------------------------------------------------


-------------------
GIBBS FREE ENERGY
-------------------

The Gibbs free energy is G = H - T*S

Total enthalpy                    ...  -1159.01246472 Eh 
Total entropy correction          ...     -0.06446245 Eh    -40.45 kcal/mol
-----------------------------------------------------------------------
Final Gibbs free energy         ...  -1159.07692717 Eh

For completeness - the Gibbs free energy minus the electronic energy
G-E(el)                           ...      0.23998883 Eh    150.59 kcal/mol


Maximum memory used throughout the entire PROP-calculation: 107.9 MB

--------------------------------
SUGGESTED CITATIONS FOR THIS RUN
--------------------------------

Below you find a list of papers that are relevant to this ORCA run
We neither can nor want to force you to cite these papers, but we appreciate if you do
You receive ORCA, which is the product of decades of hard work by many enthusiastic individuals, for free
The only thing we kindly ask in return is that you cite our papers,
We deeply appreciate it, if you show your appreciation for ORCA by not just citing the generic ORCA reference.

Please note that relegating all ORCA citations to the supporting information does *not* help us.
SI sections are not indexed - citations you put there will not count into any citation statistics
But we need these citations in order to attract the funding resources that allow us to do what we are doing

Therefore, if you are a happy ORCA user, please consider citing a few of the papers listed below in the main body of your paper

In addition to the list printed below, the program has created the file m1_01_Vitamin_B1-GFN2_006-B97-3C-TZ.bibtex that contains the list in bibtex format
You can import this file easily into all common literature databanks and citation aid programs


List of essential papers. We consider these as the minimum necessary citations

  1. Neese,F.
     Software update: the ORCA program system, version 5.0
     WIRES Comput. Molec. Sci., 2022 12(1)e1606
     doi.org/10.1002/wcms.1606

List of papers to cite with high priority. The work reported in these papers was absolutely
necessary for this run to complete.
Our perspective: the developers of density functionals and basis sets usually get cited in chemistry papers
Good! But without the algorithms to do something with them, the functionals or basis sets would not do anything.
Hence, in our opinion, the algorithm design and method developments papers are equally worthy of getting cited

  1. Neese,F.
     An improvement of the resolution of the identity approximation for the formation of the Coulomb matrix
     J. Comp. Chem., 2003 24(14)1740-1747
     doi.org/10.1002/jcc.10318
  2. Bykov,D.; Petrenko,T.; Izsak,R.; Kossmann,S.; Becker,U.; Valeev,E.; Neese,F.
     Efficient implementation of the analytic second derivatives of Hartree-Fock and hybrid DFT energies: a detailed analysis of different approximations
     Molec. Phys., 2015 113 1961-1977
     doi.org/10.1080/00268976.2015.1025114
  3. Neese,F.
     The SHARK Integral Generation and Digestion System
     J. Comp. Chem., 2022  1-16
     doi.org/10.1002/jcc.26942
  4. Grimme,S.; Antony,J.; Ehrlich,S.; Krieg,H.
     A consistent and accurate ab initio parametrization of density functional dispersion correction (DFT-D) for the 94 elements H-Pu
     J. Chem. Phys., 2010 132 154104
     doi.org/10.1063/1.3382344
  5. Grimme,S.; Ehrlich,S.; Goerigk,L.
     Effect of the damping function in dispersion corrected density functional theory
     J. Comput. Chem., 2011 32(7)1456-1465
     doi.org/10.1002/jcc.21759

List of suggested additional citations. These are papers that are important in the 'surrounding' of 
of this run, or papers that preceded the highly important papers. If you like your results we are grateful for a citation.

  1. Neese,F.
     The ORCA program system
     WIRES Comput. Molec. Sci., 2012 2(1)73-78
     doi.org/10.1002/wcms.81
  2. Neese,F.
     Software update: the ORCA program system, version 4.0
     WIRES Comput. Molec. Sci., 2018 8(1)1-6
     doi.org/10.1002/wcms.1327
  3. Neese,F.; Wennmohs,F.; Becker,U.; Riplinger,C.
     The ORCA quantum chemistry program package
     J. Chem. Phys., 2020 152 Art. No. L224108
     doi.org/10.1063/5.0004608

List of optional additional citations

  1. Neese,F.
     Approximate second-order SCF convergence for spin unrestricted wavefunctions
     Chem. Phys. Lett., 2000 325(1-3)93-98
     doi.org/10.1016/s0009-2614(00)00662-x

Timings for individual modules:

Sum of individual times          ...      336.176 sec (=   5.603 min)
Startup calculation              ...       39.873 sec (=   0.665 min)  11.9 %
SCF iterations                   ...       72.694 sec (=   1.212 min)  21.6 %
Property integrals               ...       74.640 sec (=   1.244 min)  22.2 %
SCF Response                     ...       75.681 sec (=   1.261 min)  22.5 %
Property calculations            ...       31.739 sec (=   0.529 min)   9.4 %
SCF Gradient evaluation          ...       41.458 sec (=   0.691 min)  12.3 %
Geometry relaxation              ...        0.091 sec (=   0.002 min)   0.0 %
                             ****ORCA TERMINATED NORMALLY****
TOTAL RUN TIME: 0 days 0 hours 5 minutes 38 seconds 604 msec
