
                                 *****************
                                 * O   R   C   A *
                                 *****************

                                            #,                                       
                                            ###                                      
                                            ####                                     
                                            #####                                    
                                            ######                                   
                                           ########,                                 
                                     ,,################,,,,,                         
                               ,,#################################,,                 
                          ,,##########################################,,             
                       ,#########################################, ''#####,          
                    ,#############################################,,   '####,        
                  ,##################################################,,,,####,       
                ,###########''''           ''''###############################       
              ,#####''   ,,,,##########,,,,          '''####'''          '####       
            ,##' ,,,,###########################,,,                        '##       
           ' ,,###''''                  '''############,,,                           
         ,,##''                                '''############,,,,        ,,,,,,###''
      ,#''                                            '''#######################'''  
     '                                                          ''''####''''         
             ,#######,   #######,   ,#######,      ##                                
            ,#'     '#,  ##    ##  ,#'     '#,    #''#        ,####,   ,####,        
            ##       ##  ##   ,#'  ##            #'  '#       #'       #'  '#        
            ##       ##  #######   ##           ,######,      #####,   #    #        
            '#,     ,#'  ##    ##  '#,     ,#' ,#      #,     #,   #   #,  ,#        
             '#######'   ##     ##  '#######'  #'      '#     '####' # '####'        



                #########################################################
                #                        -***-                          #
                #          Department of theory and spectroscopy        #
                #                                                       #
                #                      Frank Neese                      #
                #                                                       #
                #     Directorship, Architecture, Infrastructure        #
                #                    SHARK, DRIVERS                     #
                #        Core code/Algorithms in most modules           #
                #                                                       #
                #        Max Planck Institute fuer Kohlenforschung      #
                #                Kaiser Wilhelm Platz 1                 #
                #                 D-45470 Muelheim/Ruhr                 #
                #                      Germany                          #
                #                                                       #
                #                  All rights reserved                  #
                #                        -***-                          #
                #########################################################


                         Program Version 6.0.1  -  RELEASE   -


 With contributions from (in alphabetic order):
[Max-Planck-Institut fuer Kohlenforschung]                               
  Daniel Aravena         : Magnetic Suceptibility                        
  Michael Atanasov       : Ab Initio Ligand Field Theory (pilot matlab implementation)
  Alexander A. Auer      : GIAO ZORA, VPT2 properties, NMR spectrum      
  Ute Becker             : All parallelization in ORCA, NUMFREQ, NUMCALC 
  Giovanni Bistoni       : ED, misc. LED, open-shell LED, HFLD           
  Martin Brehm           : Molecular dynamics                            
  Dmytro Bykov           : pre 5.0 version of the SCF Hessian            
  Marcos Casanova-Páez   : Triplet and SCS-CIS(D). UHF-(DLPNO)-IP/EA/STEOM-CCSD. UHF-CVS-IP/STEOM-CCSD   
  Vijay G. Chilkuri      : MRCI spin determinant printing, contributions to CSF-ICE 
  Pauline Colinet        : FMM embedding                                 
  Dipayan Datta          : RHF DLPNO-CCSD density                        
  Achintya Kumar Dutta   : EOM-CC, STEOM-CC                              
  Nicolas Foglia         : Exact transition moments, OPA infrastructure, MCD improvements    
  Dmitry Ganyushin       : Spin-Orbit,Spin-Spin,Magnetic field MRCI      
  Miquel Garcia-Rates    : C-PCM and meta-GGA Hessian, CCSD/C-PCM, Gaussian charge scheme 
  Tiago L. C. Gouveia    : GS-ROHF, GS-ROCIS                             
  Yang Guo               : DLPNO-NEVPT2, F12-NEVPT2, CIM, IAO-localization        
  Andreas Hansen         : Spin unrestricted coupled pair/coupled cluster methods 
  Ingolf Harden          : AUTO-CI MPn and infrastructure                
  Benjamin Helmich-Paris : MC-RPA, TRAH-(SCF,CASSCF), AVAS, COSX integrals, SCF dyn. polar. 
  Lee Huntington         : MR-EOM, pCC                                   
  Robert Izsak           : Overlap fitted RIJCOSX, COSX-SCS-MP3, EOM     
  Riya Kayal             : Wick's Theorem for AUTO-CI, AUTO-CI UHF-CCSDT 
  Emily Kempfer          : AUTO-CI, RHF CISDT and CCSDT                  
  Christian Kollmar      : KDIIS, OOCD, Brueckner-CCSD(T), CCSD density, CASPT2, CASPT2-K, improved NEVPT2 
  Axel Koslowski         : Symmetry handling                             
  Simone Kossmann        : meta-GGA functionals, TD-DFT gradient, OOMP2, (MP2 Hessian; deprecated post 5.0) 
  Lucas Lang             : DCDCAS                                        
  Marvin Lechner         : AUTO-CI (C++ implementation), FIC-MRCC        
  Spencer Leger          : CASSCF response                               
  Dagmar Lenk            : GEPOL surface, SMD, ORCA-2-JSON               
  Dimitrios Liakos       : Extrapolation schemes; Compound Job, initial MDCI parallelization 
  Dimitrios Manganas     : Further ROCIS development; embedding schemes. LFT, Crystal Embedding 
  Dimitrios Pantazis     : SARC Basis sets                               
  Anastasios Papadopoulos: AUTO-CI, single reference methods and gradients 
  Taras Petrenko         : pre 6.0 DFT Hessian and TD-DFT gradient, (ASA, deprecated), ECA, 1-Electron XAS/XES, NRVS 
  Peter Pinski           : DLPNO-MP2, DLPNO-MP2 Gradient                 
  Christoph Reimann      : Effective Core Potentials                     
  Marius Retegan         : Local ZFS, SOC                                
  Christoph Riplinger    : Optimizer, TS searches, QM/MM, DLPNO-CCSD(T), (RO)-DLPNO pert. Triples 
  Michael Roemelt        : Original ROCIS implementation                 
  Masaaki Saitow         : Open-shell DLPNO-CCSD energy and density      
  Barbara Sandhoefer     : DKH picture change effects                    
  Kantharuban Sivalingam : CASSCF convergence/infrastructure, NEVPT2 and variants, FIC-MRCI 
  Bernardo de Souza      : ESD, SOC TD-DFT                               
  Georgi L. Stoychev     : AutoAux, RI-MP2 NMR, DLPNO-MP2 response, X2C  
  Van Anh Tran           : RI-MP2 g-tensors                              
  Willem Van den Heuvel  : Paramagnetic NMR                              
  Zikuan Wang            : NOTCH, Electric field optimization            
  Frank Wennmohs         : Technical directorship and infrastructure     
  Hang Xu                : AUTO-CI-Response properties                   
                                                                         
[FACCTs GmbH]                                                            
  Markus Bursch, Miquel Garcia-Rates, Christoph Riplinger, Bernardo de Souza, Georgi L. Stoychev 
                                                                 
  APM, Basis sets (HGBS, AHGBS, def-TZVP (Ac-Lr), def2-XVPD (La-Lu)), CI-OPT, improved COSX, DLPNO-Multilevel,           
  DOCKER, DRACO, updates on ESD, GOAT, IRC, LR-CPCM, MBIS, meta-GGA TD-DFT gradient, ML-optimized integration grids, 
  MM, NACMEs, nearIR, NEB, NEB-TS, NL-DFT gradient (VV10), 2- and 3-layer-ONIOM, interface openCOSMO-RS, QMMM,   
  Crystal-QMMM, SF, symmetry and pop. for TD-DFT, r2SCAN hybrids, SOLVATOR                                   
                                                                         
[Other institutions]                                                     
  V. Asgeirsson          : NEB                                           
  Christoph Bannwarth    : sTDA-DFT, sTD-DFT, PBEh-3c, B97-3c, D3        
  Sebastian Ehlert       : rSCAN, r2SCAN, r2SCAN-3c, D4, dhf basis sets  
  Marvin Friede          : D4 for Fr, Ra, Ac-Lr                          
  Lars Goerigk           : TD-DFT with DH, B97 family of functionals     
  Stefan Grimme          : VdW corrections, initial TS optimization, DFT functionals, gCP, sTDA/sTD-DF 
  Waldemar Hujo          : DFT-NL                                        
  H. Jonsson             : NEB                                           
  Holger Kruse           : gCP                                           
  Marcel Mueller         : wB97X-3c, vDZP basis set                      
  Hagen Neugebauer       : wr2SCAN                                       
  Tobias Risthaus        : range-separated hybrid DFT                    
  Lukas Wittmann         : regularized MP2, r2SCAN double-hybrids, wr2SCAN        
                                                                         
We gratefully acknowledge several colleagues who have allowed us to      
interface, adapt or use parts of their codes:                            
  Ed Valeev, F. Pavosevic, A. Kumar             : LibInt (2-el integral package), F12 methods 
  Garnet Chan, S. Sharma, J. Yang, R. Olivares  : DMRG                   
  Ulf Ekstrom                                   : XCFun DFT Library      
  Mihaly Kallay                                 : mrcc  (arbitrary order and MRCC methods)
  Frank Weinhold                                : gennbo (NPA and NBO analysis)           
  Simon Mueller                                 : openCOSMO-RS                            
  Christopher J. Cramer and Donald G. Truhlar   : smd solvation model                     
  S Lehtola, MJT Oliveira, MAL Marques          : LibXC Library                           
  Liviu Ungur et al                             : ANISO software                          


 Your calculation uses the libint2 library for the computation of 2-el integrals
 For citations please refer to: http://libint.valeyev.net

 Your ORCA version has been built with support for libXC version: 6.2.2
 For citations please refer to: https://libxc.gitlab.io

 This ORCA versions uses:
   CBLAS   interface :  Fast vector & matrix operations
   LAPACKE interface :  Fast linear algebra routines
   SCALAPACK package :  Parallel linear algebra routines
   Shared memory     :  Shared parallel matrices
   BLAS/LAPACK       :  OpenBLAS 0.3.27  USE64BITINT DYNAMIC_ARCH NO_AFFINITY Zen SINGLE_THREADED
        Core in use  :  Zen
   Copyright (c) 2011-2014, The OpenBLAS Project


NOTE: MaxCore=6000 MB was set to SCF,MP2,MDCI,CIPSI,MRCI and CIS
      => If you want to overwrite this, your respective input block should be placed after the MaxCore statement
Your calculation utilizes the atom-pairwise dispersion correction
with the Becke-Johnson damping scheme (D3BJ)


Your calculation employs the composite approach B97-3c by Grimme and coworkers.
For the correct reference, please check the publication list of the Grimme group:
http://www.thch.uni-bonn.de/tc/index.php?section=publikationen&subsection=grimme#2017
   

XCFun DFT library Copyright 2009-2010 Ulf Ekstrom and contributors.
See http://admol.org/xcfun for more information.
This is free software; see the source code for copying conditions.
There is ABSOLUTELY NO WARRANTY; not even for MERCHANTABILITY or FITNESS FOR A PARTICULAR PURPOSE.
For details see the documentation.
Scientific users of this library should cite U. Ekstrom, L. Visscher, R. Bast, A. J. Thorvaldsen and K. Ruud;
J.Chem.Theor.Comp. 2010, DOI: 10.1021/ct100117s
XCFun Version 0.99 

================================================================================

----- Orbital basis set information -----
Your calculation utilizes the basis: def2-mTZVP
----- AuxJ basis set information -----
Your calculation utilizes the basis: def2-mTZVP/J
================================================================================
                                        WARNINGS
                       Please study these warnings very carefully!
================================================================================


WARNING: Geometry Optimization
  ===> : Switching off AutoStart
         For restart on a previous wavefunction, please use MOREAD

================================================================================
                                       INPUT FILE
================================================================================
NAME = m1_01_Vitamin_B1-GFN2_012-B97-3C-TZ.inp
|  1> %pal nprocs 16 end
|  2> %MaxCore 6000
|  3> # put your comments here
|  4> ! B97-3C  OPT  FREQ DEFGRID3 NOTRAH
|  5> %scf MaxIter 800 end
|  6> %output
|  7> Print [P_Hirshfeld] 1
|  8> end
|  9> %geom
| 10> MaxIter 3000
| 11>  TolE 1e-6 #TolE 5e-6 Energy change (a.u.)
| 12>  TolRMSG 3e-5 #TolRMSG 1e-4 RMS gradient (a.u.)
| 13>  TolMaxG 1e-4 #TolMaxG 3e-3 Max. element of gradient (a.u.)
| 14>  TolRMSD 2e-3 #TolRMSD 2e-3 RMS displacement (a.u.)
| 15>  TolMaxD 4e-3 #TolMaxD 4e-3 Max. displacement (a.u.)
| 16> end
| 17> * xyz 1 1
| 18>  S -0.68369276459503 8.20721148584984 -2.64773039178188
| 19>  O -0.13578510725536 5.96422641637178 -3.47488713094648
| 20>  N -0.21242497225111 9.77561332874543 -0.72143245509852
| 21>  N -1.84250872012330 10.83341829592194 3.60598599934692
| 22>  N -3.15612549742332 9.52086453647279 2.17548248365156
| 23>  N 0.00757542957134 11.97989658339117 2.92823739907394
| 24>  C 0.44996833548032 8.61829874592993 -0.38811798308231
| 25>  C -0.29520641671506 10.91999427090048 0.16264066235357
| 26>  C 0.31142244558945 7.65393719992454 -1.34278963369537
| 27>  C 0.85733652422849 6.26828466090182 -1.35493516622480
| 28>  C -1.23124943482620 10.63252948249540 1.31554534835247
| 29>  C -0.85530297743079 9.69883169595029 -1.87363278560676
| 30>  C 1.20303493093516 8.52219302055063 0.88916796387562
| 31>  C 1.08767856742057 5.79272635882403 -2.79076363830527
| 32>  C -1.03141344434778 11.16877736779320 2.60831256138891
| 33>  C -2.34767386268679 9.82281431423246 1.17842713610343
| 34>  C -2.86223022014280 10.02457848473440 3.37088872950987
| 35>  C -3.73684874354282 9.65770492126400 4.51371633606214
| 36>  H -0.64916237111503 11.77606673674105 -0.42041269504296
| 37>  H 0.70637416662142 11.13969041443411 0.54079200914013
| 38>  H 0.12979759396383 5.59995331302363 -0.88447961468967
| 39>  H 1.79088810673443 6.21239258240435 -0.79632498006008
| 40>  H -1.42219045412881 10.51891163505613 -2.27262992479975
| 41>  H 2.04319967324338 9.21635566669211 0.89808304454213
| 42>  H 0.55558331467019 8.76219123334780 1.73136146796966
| 43>  H 1.58653343193483 7.51744100591604 1.02865629449064
| 44>  H 1.39090047552036 4.74072170266793 -2.78592662596231
| 45>  H 1.88167435668142 6.38818212622098 -3.26164825866957
| 46>  H -2.61189210354902 9.38379850199893 0.22230124736084
| 47>  H 0.42762353649573 12.57322022297487 2.23456526810354
| 48>  H -0.02927348731856 12.35132231319935 3.86504918947834
| 49>  H -0.04920536275541 5.69557537271166 -4.39590878522551
| 50>  H -3.58742294206177 10.35071210934135 5.33510112700229
| 51>  H -4.77537092562905 9.65115080955983 4.19521729714579
| 52>  H -3.48640708119408 8.65221508345576 4.84904450424303
| 53> *
| 54> 
| 55> 
| 56> 
| 57> 
| 58>                          ****END OF INPUT****
================================================================================

                       *****************************
                       * Geometry Optimization Run *
                       *****************************

Geometry optimization settings:
Update method            Update   .... BFGS
Choice of coordinates    CoordSys .... (2022) Redundant Internals
Initial Hessian          InHess   .... Almloef's Model
Max. no of cycles        MaxIter  .... 3000

Convergence Tolerances:
Energy Change            TolE     ....  1.0000e-06 Eh
Max. Gradient            TolMAXG  ....  1.0000e-04 Eh/bohr
RMS Gradient             TolRMSG  ....  3.0000e-05 Eh/bohr
Max. Displacement        TolMAXD  ....  4.0000e-03 bohr
RMS Displacement         TolRMSD  ....  2.0000e-03 bohr
Strict Convergence                .... False

------------------------------------------------------------------------------
                        ORCA OPTIMIZATION COORDINATE SETUP
------------------------------------------------------------------------------

The optimization will be done in redundant internal coordinates (2022)
Making redundant internal coordinates   ...  (2022 redundants) done
Evaluating the initial hessian          ...  (Almloef) done
Evaluating the coordinates              ...  done
Calculating the B-matrix                .... done
Calculating the G-matrix                .... done
Diagonalizing the G-matrix              .... done
Small eigenvalue found = 2.948e-03
Small eigenvalue found = 7.322e-03
Small eigenvalue found = 1.360e-02
Small eigenvalue found = 1.737e-02
The first mode is                       ....   68
The number of degrees of freedom        ....   99

    -----------------------------------------------------------------
                    Redundant Internal Coordinates


    -----------------------------------------------------------------
         Definition                    Initial Value    Approx d2E/dq
    -----------------------------------------------------------------
      1. B(C   6,N   2)                  1.3745         0.592394   
      2. B(C   7,N   2)                  1.4485         0.451441   
      3. B(C   8,S   0)                  1.7318         0.479885   
      4. B(C   8,C   6)                  1.3640         0.687333   
      5. B(C   9,C   8)                  1.4894         0.433722   
      6. B(C  10,C   7)                  1.5126         0.398213   
      7. B(C  11,S   0)                  1.6893         0.561115   
      8. B(C  11,N   2)                  1.3216         0.719328   
      9. B(C  12,C   6)                  1.4859         0.439326   
     10. B(C  13,C   9)                  1.5300         0.373612   
     11. B(C  13,O   1)                  1.4122         0.515776   
     12. B(C  14,C  10)                  1.4138         0.572554   
     13. B(C  14,N   5)                  1.3564         0.633163   
     14. B(C  14,N   3)                  1.3288         0.700690   
     15. B(C  15,N   4)                  1.3187         0.727244   
     16. B(C  15,C  10)                  1.3859         0.634173   
     17. B(C  16,N   4)                  1.3301         0.697401   
     18. B(C  16,N   3)                  1.3226         0.716763   
     19. B(C  17,C  16)                  1.4851         0.440520   
     20. B(H  18,C   7)                  1.0946         0.354097   
     21. B(H  19,C   7)                  1.0929         0.356285   
     22. B(H  20,C   9)                  1.0942         0.354566   
     23. B(H  21,C   9)                  1.0894         0.360958   
     24. B(H  22,C  11)                  1.0738         0.382152   
     25. B(H  23,C  12)                  1.0899         0.360271   
     26. B(H  24,C  12)                  1.0891         0.361327   
     27. B(H  25,C  12)                  1.0845         0.367503   
     28. B(H  26,C  13)                  1.0948         0.353750   
     29. B(H  27,C  13)                  1.0985         0.349014   
     30. B(H  28,C  15)                  1.0848         0.367087   
     31. B(H  29,N   5)                  1.0048         0.441028   
     32. B(H  30,N   5)                  1.0084         0.435211   
     33. B(H  31,O   1)                  0.9633         0.513687   
     34. B(H  32,C  17)                  1.0850         0.366754   
     35. B(H  33,C  17)                  1.0863         0.365050   
     36. B(H  34,C  17)                  1.0891         0.361270   
     37. A(C   8,S   0,C  11)           89.7238         0.453623   
     38. A(C  13,O   1,H  31)          110.5755         0.357907   
     39. A(C   6,N   2,C  11)          113.3850         0.436420   
     40. A(C   7,N   2,C  11)          123.3807         0.415697   
     41. A(C   6,N   2,C   7)          123.0083         0.401652   
     42. A(C  14,N   3,C  16)          119.4387         0.449585   
     43. A(C  15,N   4,C  16)          117.2174         0.450386   
     44. A(C  14,N   5,H  29)          120.6968         0.361124   
     45. A(C  14,N   5,H  30)          114.2917         0.360308   
     46. A(H  29,N   5,H  30)          116.0470         0.304464   
     47. A(C   8,C   6,C  12)          127.4010         0.415720   
     48. A(N   2,C   6,C  12)          120.4750         0.402311   
     49. A(N   2,C   6,C   8)          112.1239         0.435714   
     50. A(C  10,C   7,H  19)          109.9742         0.327170   
     51. A(N   2,C   7,H  19)          108.5197         0.332014   
     52. A(C  10,C   7,H  18)          110.7644         0.326839   
     53. A(N   2,C   7,C  10)          110.5133         0.377142   
     54. A(H  18,C   7,H  19)          108.8713         0.289589   
     55. A(N   2,C   7,H  18)          108.1361         0.331676   
     56. A(S   0,C   8,C   6)          111.0920         0.445715   
     57. A(C   6,C   8,C   9)          128.7732         0.414772   
     58. A(S   0,C   8,C   9)          120.1125         0.410414   
     59. A(C   8,C   9,C  13)          110.6110         0.372786   
     60. A(C  13,C   9,H  20)          108.2850         0.323501   
     61. A(H  20,C   9,H  21)          108.5414         0.290242   
     62. A(C   8,C   9,H  21)          110.9573         0.332537   
     63. A(C   8,C   9,H  20)          108.7256         0.331554   
     64. A(C  13,C   9,H  21)          109.6497         0.324451   
     65. A(C  14,C  10,C  15)          115.2096         0.429642   
     66. A(C   7,C  10,C  15)          122.2834         0.402765   
     67. A(C   7,C  10,C  14)          122.5070         0.395589   
     68. A(S   0,C  11,N   2)          113.6643         0.459320   
     69. A(N   2,C  11,H  22)          122.4356         0.363356   
     70. A(S   0,C  11,H  22)          123.8977         0.368868   
     71. A(H  23,C  12,H  25)          108.4482         0.291793   
     72. A(H  24,C  12,H  25)          108.3570         0.291927   
     73. A(C   6,C  12,H  25)          110.4703         0.334241   
     74. A(H  23,C  12,H  24)          108.1560         0.291017   
     75. A(C   6,C  12,H  24)          110.4384         0.333302   
     76. A(C   6,C  12,H  23)          110.8875         0.333140   
     77. A(O   1,C  13,C   9)          106.6455         0.381708   
     78. A(H  26,C  13,H  27)          108.8178         0.288611   
     79. A(C   9,C  13,H  27)          110.0361         0.322664   
     80. A(O   1,C  13,H  27)          110.6530         0.338288   
     81. A(C   9,C  13,H  26)          109.6465         0.323378   
     82. A(O   1,C  13,H  26)          111.0248         0.339049   
     83. A(N   3,C  14,N   5)          116.1932         0.439604   
     84. A(N   5,C  14,C  10)          123.4204         0.426717   
     85. A(N   3,C  14,C  10)          120.3010         0.434553   
     86. A(C  10,C  15,H  28)          121.3223         0.355419   
     87. A(N   4,C  15,H  28)          115.1153         0.361544   
     88. A(N   4,C  15,C  10)          123.5614         0.445630   
     89. A(N   4,C  16,C  17)          117.8994         0.414299   
     90. A(N   3,C  16,C  17)          117.9263         0.416322   
     91. A(N   3,C  16,N   4)          124.1742         0.449201   
     92. A(H  33,C  17,H  34)          107.7306         0.291613   
     93. A(H  32,C  17,H  34)          108.9605         0.291826   
     94. A(C  16,C  17,H  34)          109.2425         0.333444   
     95. A(H  32,C  17,H  33)          110.9453         0.292305   
     96. A(C  16,C  17,H  33)          109.8094         0.334020   
     97. A(C  16,C  17,H  32)          110.0998         0.334279   
     98. D(C  12,C   6,N   2,C   7)     -4.1027         0.028227   
     99. D(C  12,C   6,N   2,C  11)   -178.8037         0.028227   
    100. D(C   8,C   6,N   2,C  11)      1.1201         0.028227   
    101. D(C   8,C   6,N   2,C   7)    175.8210         0.028227   
    102. D(H  19,C   7,N   2,C   6)     48.2649         0.017387   
    103. D(C  10,C   7,N   2,C  11)    101.7765         0.017387   
    104. D(H  18,C   7,N   2,C  11)    -19.6140         0.017387   
    105. D(C  10,C   7,N   2,C   6)    -72.3972         0.017387   
    106. D(H  18,C   7,N   2,C   6)    166.2123         0.017387   
    107. D(C   9,C   8,C   6,N   2)   -179.3205         0.033173   
    108. D(S   0,C   8,C   6,N   2)     -1.0655         0.033173   
    109. D(S   0,C   8,C   6,C  12)    178.8518         0.033173   
    110. D(C   9,C   8,C   6,C  12)      0.5968         0.033173   
    111. D(C   6,C   8,S   0,C  11)      0.5936         0.004900   
    112. D(C   9,C   8,S   0,C  11)    179.0209         0.004900   
    113. D(H  21,C   9,C   8,S   0)    152.3801         0.013888   
    114. D(H  20,C   9,C   8,C   6)     89.7978         0.013888   
    115. D(H  20,C   9,C   8,S   0)    -88.3201         0.013888   
    116. D(C  13,C   9,C   8,C   6)   -151.4239         0.013888   
    117. D(C  13,C   9,C   8,S   0)     30.4583         0.013888   
    118. D(C  15,C  10,C   7,H  18)     86.6923         0.011773   
    119. D(C  15,C  10,C   7,N   2)    -33.1290         0.011773   
    120. D(C  14,C  10,C   7,H  19)     27.0721         0.011773   
    121. D(C  14,C  10,C   7,H  18)    -93.3162         0.011773   
    122. D(C  14,C  10,C   7,N   2)    146.8625         0.011773   
    123. D(H  22,C  11,N   2,C   6)    179.8820         0.043059   
    124. D(S   0,C  11,N   2,C   7)   -175.3389         0.043059   
    125. D(S   0,C  11,N   2,C   6)     -0.6606         0.043059   
    126. D(N   2,C  11,S   0,C   8)      0.0352         0.006223   
    127. D(H  22,C  11,N   2,C   7)      5.2037         0.043059   
    128. D(H  22,C  11,S   0,C   8)    179.4835         0.006223   
    129. D(H  25,C  12,C   6,N   2)    174.9967         0.014242   
    130. D(H  24,C  12,C   6,C   8)   -124.7729         0.014242   
    131. D(H  24,C  12,C   6,N   2)     55.1382         0.014242   
    132. D(H  23,C  12,C   6,C   8)    115.3499         0.014242   
    133. D(H  23,C  12,C   6,N   2)    -64.7390         0.014242   
    134. D(H  26,C  13,C   9,H  21)     63.0503         0.011146   
    135. D(H  26,C  13,C   9,H  20)    -55.2174         0.011146   
    136. D(H  26,C  13,C   9,C   8)   -174.2627         0.011146   
    137. D(O   1,C  13,C   9,H  21)   -176.6618         0.011146   
    138. D(O   1,C  13,C   9,H  20)     65.0705         0.011146   
    139. D(O   1,C  13,C   9,C   8)    -53.9748         0.011146   
    140. D(H  27,C  13,O   1,H  31)     59.2747         0.021077   
    141. D(H  26,C  13,O   1,H  31)    -61.6678         0.021077   
    142. D(C   9,C  13,O   1,H  31)    178.9347         0.021077   
    143. D(N   5,C  14,C  10,C   7)     -0.0637         0.022496   
    144. D(N   3,C  14,C  10,C  15)      3.4188         0.022496   
    145. D(N   3,C  14,C  10,C   7)   -176.5732         0.022496   
    146. D(C  10,C  14,N   5,H  30)    174.6425         0.032572   
    147. D(C  10,C  14,N   5,H  29)     28.7262         0.032572   
    148. D(N   3,C  14,N   5,H  30)     -8.7159         0.032572   
    149. D(N   3,C  14,N   5,H  29)   -154.6322         0.032572   
    150. D(C  10,C  14,N   3,C  16)     -1.9867         0.036774   
    151. D(N   5,C  14,C  10,C  15)    179.9283         0.022496   
    152. D(N   5,C  14,N   3,C  16)   -178.7402         0.036774   
    153. D(H  28,C  15,C  10,C  14)    178.1421         0.027909   
    154. D(H  28,C  15,C  10,C   7)     -1.8658         0.027909   
    155. D(N   4,C  15,C  10,C  14)     -2.2444         0.027909   
    156. D(N   4,C  15,C  10,C   7)    177.7477         0.027909   
    157. D(H  28,C  15,N   4,C  16)    179.2393         0.039908   
    158. D(C  10,C  15,N   4,C  16)     -0.3961         0.039908   
    159. D(C  17,C  16,N   3,C  14)    179.2186         0.038652   
    160. D(N   4,C  16,N   3,C  14)     -0.9278         0.038652   
    161. D(C  17,C  16,N   4,C  15)   -178.0102         0.036396   
    162. D(N   3,C  16,N   4,C  15)      2.1362         0.036396   
    163. D(H  34,C  17,C  16,N   3)   -102.3362         0.014319   
    164. D(H  33,C  17,C  16,N   4)    -40.1419         0.014319   
    165. D(H  33,C  17,C  16,N   3)    139.7210         0.014319   
    166. D(H  32,C  17,C  16,N   4)   -162.5821         0.014319   
    167. D(H  32,C  17,C  16,N   3)     17.2809         0.014319   
    -----------------------------------------------------------------

Number of atoms                         .... 35
Number of degrees of freedom            .... 167


         *************************************************************
         *                GEOMETRY OPTIMIZATION CYCLE   1            *
         *************************************************************
---------------------------------
CARTESIAN COORDINATES (ANGSTROEM)
---------------------------------
  S     -0.683693    8.207211   -2.647730
  O     -0.135785    5.964226   -3.474887
  N     -0.212425    9.775613   -0.721432
  N     -1.842509   10.833418    3.605986
  N     -3.156125    9.520865    2.175482
  N      0.007575   11.979897    2.928237
  C      0.449968    8.618299   -0.388118
  C     -0.295206   10.919994    0.162641
  C      0.311422    7.653937   -1.342790
  C      0.857337    6.268285   -1.354935
  C     -1.231249   10.632529    1.315545
  C     -0.855303    9.698832   -1.873633
  C      1.203035    8.522193    0.889168
  C      1.087679    5.792726   -2.790764
  C     -1.031413   11.168777    2.608313
  C     -2.347674    9.822814    1.178427
  C     -2.862230   10.024578    3.370889
  C     -3.736849    9.657705    4.513716
  H     -0.649162   11.776067   -0.420413
  H      0.706374   11.139690    0.540792
  H      0.129798    5.599953   -0.884480
  H      1.790888    6.212393   -0.796325
  H     -1.422190   10.518912   -2.272630
  H      2.043200    9.216356    0.898083
  H      0.555583    8.762191    1.731361
  H      1.586533    7.517441    1.028656
  H      1.390900    4.740722   -2.785927
  H      1.881674    6.388182   -3.261648
  H     -2.611892    9.383799    0.222301
  H      0.427624   12.573220    2.234565
  H     -0.029273   12.351322    3.865049
  H     -0.049205    5.695575   -4.395909
  H     -3.587423   10.350712    5.335101
  H     -4.775371    9.651151    4.195217
  H     -3.486407    8.652215    4.849045

----------------------------
CARTESIAN COORDINATES (A.U.)
----------------------------
  NO LB      ZA    FRAG     MASS         X           Y           Z
   0 S    16.0000    0    32.060   -1.291992   15.509382   -5.003485
   1 O     8.0000    0    15.999   -0.256597   11.270755   -6.566585
   2 N     7.0000    0    14.007   -0.401425   18.473232   -1.363310
   3 N     7.0000    0    14.007   -3.481837   20.472194    6.814326
   4 N     7.0000    0    14.007   -5.964213   17.991827    4.111066
   5 N     7.0000    0    14.007    0.014315   22.638724    5.533567
   6 C     6.0000    0    12.011    0.850317   16.286224   -0.733437
   7 C     6.0000    0    12.011   -0.557859   20.635799    0.307346
   8 C     6.0000    0    12.011    0.588503   14.463845   -2.537505
   9 C     6.0000    0    12.011    1.620131   11.845341   -2.560456
  10 C     6.0000    0    12.011   -2.326724   20.092569    2.486020
  11 C     6.0000    0    12.011   -1.616288   18.328136   -3.540653
  12 C     6.0000    0    12.011    2.273407   16.104611    1.680284
  13 C     6.0000    0    12.011    2.055415   10.946666   -5.273779
  14 C     6.0000    0    12.011   -1.949089   21.105930    4.928996
  15 C     6.0000    0    12.011   -4.436461   18.562429    2.226905
  16 C     6.0000    0    12.011   -5.408831   18.943708    6.370057
  17 C     6.0000    0    12.011   -7.061621   18.250417    8.529688
  18 H     1.0000    0     1.008   -1.226739   22.253541   -0.794465
  19 H     1.0000    0     1.008    1.334854   21.050964    1.021949
  20 H     1.0000    0     1.008    0.245282   10.582378   -1.671424
  21 H     1.0000    0     1.008    3.384288   11.739721   -1.504836
  22 H     1.0000    0     1.008   -2.687550   19.877862   -4.294648
  23 H     1.0000    0     1.008    3.861088   17.416388    1.697131
  24 H     1.0000    0     1.008    1.049900   16.558142    3.271799
  25 H     1.0000    0     1.008    2.998114   14.205905    1.943879
  26 H     1.0000    0     1.008    2.628421    8.958666   -5.264638
  27 H     1.0000    0     1.008    3.555849   12.071915   -6.163622
  28 H     1.0000    0     1.008   -4.935761   17.732809    0.420088
  29 H     1.0000    0     1.008    0.808091   23.759943    4.222716
  30 H     1.0000    0     1.008   -0.055319   23.340617    7.303884
  31 H     1.0000    0     1.008   -0.092985   10.763078   -8.307064
  32 H     1.0000    0     1.008   -6.779247   19.560011   10.081880
  33 H     1.0000    0     1.008   -9.024143   18.238032    7.927812
  34 H     1.0000    0     1.008   -6.588355   16.350317    9.163366

--------------------------------
INTERNAL COORDINATES (ANGSTROEM)
--------------------------------
 S      0   0   0     0.000000000000     0.00000000     0.00000000
 O      1   0   0     2.452625754986     0.00000000     0.00000000
 N      1   2   0     2.528359431285   141.49991591     0.00000000
 N      3   1   2     4.743698436193   140.29064982   271.97412984
 N      4   3   1     2.344083342687    60.72505662   345.92197383
 N      4   3   1     2.279597988629    64.02641705   177.15930006
 C      3   1   2     1.374496444150    75.65694088   356.55699035
 C      3   1   2     1.448463249557   160.81410063   189.09892669
 C      7   3   1     1.364033033142   112.12390360     0.70282986
 C      9   7   3     1.489363170659   128.77321858   180.67947451
 C      8   3   1     1.512614211002   110.51332655    93.07326988
 C      3   1   2     1.321647891952    37.73027129   177.18278733
 C      7   3   1     1.485868432243   120.47501465   180.77904665
 C      2   1   3     1.412197077668    98.11864097   336.63823229
 C      4   3   1     1.328794018002    33.02861600   189.67491738
 C      5   4   3     1.318668677141    89.40628852   348.40492395
 C      4   3   1     1.322620317419    88.07525387   352.21477521
 C     17   4   3     1.485129190120   117.92630310   168.39489556
 H      8   3   1     1.094575763480   108.13609957   331.68276694
 H      8   3   1     1.092899126853   108.51970540   213.73537240
 H     10   9   7     1.094215751841   108.72558609    89.79777894
 H     10   9   7     1.089352019195   110.95728276   330.49795537
 H     12   3   1     1.073820857893   122.43561276   180.54258067
 H     13   7   3     1.089870658463   110.88754105   295.26101669
 H     13   7   3     1.089074210460   110.43838270    55.13818573
 H     13   7   3     1.084460559707   110.47026591   174.99670240
 H     14   2   1     1.094842782693   111.02477784   164.04089256
 H     14   2   1     1.098512271204   110.65302151   284.98340228
 H     16   5   4     1.084768582380   115.11529703   180.23634149
 H      6   4   3     1.004815594378   147.29760445    55.77116358
 H      6   4   3     1.008430089833    83.07256976   184.78365338
 H      2   1   3     0.963301781929   126.69657826   213.33538681
 H     18  17   4     1.085016132444   110.09981553    17.28086983
 H     18  17   4     1.086283994569   109.80941237   139.72103819
 H     18  17   4     1.089116991214   109.24254001   257.66377099

---------------------------
INTERNAL COORDINATES (A.U.)
---------------------------
 S      0   0   0     0.000000000000     0.00000000     0.00000000
 O      1   0   0     4.634790985925     0.00000000     0.00000000
 N      1   2   0     4.777906893246   141.49991591     0.00000000
 N      3   1   2     8.964290906314   140.29064982   271.97412984
 N      4   3   1     4.429675552766    60.72505662   345.92197383
 N      4   3   1     4.307815893947    64.02641705   177.15930006
 C      3   1   2     2.597421851492    75.65694088   356.55699035
 C      3   1   2     2.737198856712   160.81410063   189.09892669
 C      7   3   1     2.577648870261   112.12390360     0.70282986
 C      9   7   3     2.814488506495   128.77321858   180.67947451
 C      8   3   1     2.858426605071   110.51332655    93.07326988
 C      3   1   2     2.497552561264    37.73027129   177.18278733
 C      7   3   1     2.807884407979   120.47501465   180.77904665
 C      2   1   3     2.668665723916    98.11864097   336.63823229
 C      4   3   1     2.511056782417    33.02861600   189.67491738
 C      5   4   3     2.491922661176    89.40628852   348.40492395
 C      4   3   1     2.499390179081    88.07525387   352.21477521
 C     17   4   3     2.806487442819   117.92630310   168.39489556
 H      8   3   1     2.068448425804   108.13609957   331.68276694
 H      8   3   1     2.065280041754   108.51970540   213.73537240
 H     10   9   7     2.067768102403   108.72558609    89.79777894
 H     10   9   7     2.058576979713   110.95728276   330.49795537
 H     12   3   1     2.029227338309   122.43561276   180.54258067
 H     13   7   3     2.059557065892   110.88754105   295.26101669
 H     13   7   3     2.058051997285   110.43838270    55.13818573
 H     13   7   3     2.049333460884   110.47026591   174.99670240
 H     14   2   1     2.068953018989   111.02477784   164.04089256
 H     14   2   1     2.075887347327   110.65302151   284.98340228
 H     16   5   4     2.049915539381   115.11529703   180.23634149
 H      6   4   3     1.898826288467   147.29760445    55.77116358
 H      6   4   3     1.905656694990    83.07256976   184.78365338
 H      2   1   3     1.820376552165   126.69657826   213.33538681
 H     18  17   4     2.050383341205   110.09981553    17.28086983
 H     18  17   4     2.052779253397   109.80941237   139.72103819
 H     18  17   4     2.058132841195   109.24254001   257.66377099

---------------------
BASIS SET INFORMATION
---------------------
There are 5 groups of distinct atoms

 Group   1 Type S   : 14s9p1d contracted to 5s4p1d pattern {73211/6111/1}
 Group   2 Type O   : 11s6p2d contracted to 5s3p2d pattern {62111/411/11}
 Group   3 Type N   : 11s6p1d contracted to 5s3p1d pattern {62111/411/1}
 Group   4 Type C   : 11s6p1d contracted to 5s3p1d pattern {62111/411/1}
 Group   5 Type H   : 5s contracted to 3s pattern {311}

Atom   0S    basis set group =>   1
Atom   1O    basis set group =>   2
Atom   2N    basis set group =>   3
Atom   3N    basis set group =>   3
Atom   4N    basis set group =>   3
Atom   5N    basis set group =>   3
Atom   6C    basis set group =>   4
Atom   7C    basis set group =>   4
Atom   8C    basis set group =>   4
Atom   9C    basis set group =>   4
Atom  10C    basis set group =>   4
Atom  11C    basis set group =>   4
Atom  12C    basis set group =>   4
Atom  13C    basis set group =>   4
Atom  14C    basis set group =>   4
Atom  15C    basis set group =>   4
Atom  16C    basis set group =>   4
Atom  17C    basis set group =>   4
Atom  18H    basis set group =>   5
Atom  19H    basis set group =>   5
Atom  20H    basis set group =>   5
Atom  21H    basis set group =>   5
Atom  22H    basis set group =>   5
Atom  23H    basis set group =>   5
Atom  24H    basis set group =>   5
Atom  25H    basis set group =>   5
Atom  26H    basis set group =>   5
Atom  27H    basis set group =>   5
Atom  28H    basis set group =>   5
Atom  29H    basis set group =>   5
Atom  30H    basis set group =>   5
Atom  31H    basis set group =>   5
Atom  32H    basis set group =>   5
Atom  33H    basis set group =>   5
Atom  34H    basis set group =>   5
---------------------------------
AUXILIARY/J BASIS SET INFORMATION
---------------------------------
There are 5 groups of distinct atoms

 Group   1 Type S   : 14s5p5d2f1g contracted to 8s4p3d1f1g pattern {71111111/2111/311/2/1}
 Group   2 Type O   : 8s3p3d contracted to 6s3p3d pattern {311111/111/111}
 Group   3 Type N   : 8s3p3d contracted to 6s3p3d pattern {311111/111/111}
 Group   4 Type C   : 8s3p3d contracted to 6s3p3d pattern {311111/111/111}
 Group   5 Type H   : 5s2p contracted to 3s1p pattern {311/2}

Atom   0S    basis set group =>   1
Atom   1O    basis set group =>   2
Atom   2N    basis set group =>   3
Atom   3N    basis set group =>   3
Atom   4N    basis set group =>   3
Atom   5N    basis set group =>   3
Atom   6C    basis set group =>   4
Atom   7C    basis set group =>   4
Atom   8C    basis set group =>   4
Atom   9C    basis set group =>   4
Atom  10C    basis set group =>   4
Atom  11C    basis set group =>   4
Atom  12C    basis set group =>   4
Atom  13C    basis set group =>   4
Atom  14C    basis set group =>   4
Atom  15C    basis set group =>   4
Atom  16C    basis set group =>   4
Atom  17C    basis set group =>   4
Atom  18H    basis set group =>   5
Atom  19H    basis set group =>   5
Atom  20H    basis set group =>   5
Atom  21H    basis set group =>   5
Atom  22H    basis set group =>   5
Atom  23H    basis set group =>   5
Atom  24H    basis set group =>   5
Atom  25H    basis set group =>   5
Atom  26H    basis set group =>   5
Atom  27H    basis set group =>   5
Atom  28H    basis set group =>   5
Atom  29H    basis set group =>   5
Atom  30H    basis set group =>   5
Atom  31H    basis set group =>   5
Atom  32H    basis set group =>   5
Atom  33H    basis set group =>   5
Atom  34H    basis set group =>   5


           ************************************************************
           *        Program running with 16 parallel MPI-processes    *
           *              working on a common directory               *
           ************************************************************
------------------------------------------------------------------------------
                             ORCA STARTUP CALCULATIONS
                           -- RI-GTO INTEGRALS CHOSEN --
------------------------------------------------------------------------------
------------------------------------------------------------------------------
                   ___                                                        
                  /   \      - P O W E R E D   B Y -                         
                 /     \                                                     
                 |  |  |   _    _      __       _____    __    __             
                 |  |  |  | |  | |    /  \     |  _  \  |  |  /  |          
                  \  \/   | |  | |   /    \    | | | |  |  | /  /          
                 / \  \   | |__| |  /  /\  \   | |_| |  |  |/  /          
                |  |  |   |  __  | /  /__\  \  |    /   |      \           
                |  |  |   | |  | | |   __   |  |    \   |  |\   \          
                \     /   | |  | | |  |  |  |  | |\  \  |  | \   \       
                 \___/    |_|  |_| |__|  |__|  |_| \__\ |__|  \__/        
                                                                              
                      - O R C A' S   B I G   F R I E N D -                    
                                      &                                       
                       - I N T E G R A L  F E E D E R -                       
                                                                              
 v1 FN, 2020, v2 2021, v3 2022-2024                                           
------------------------------------------------------------------------------


----------------------
SHARK INTEGRAL PACKAGE
----------------------

Number of atoms                             ...     35
Number of basis functions                   ...    401
Number of shells                            ...    215
Maximum angular momentum                    ...      2
Integral batch strategy                     ... SHARK/LIBINT Hybrid
RI-J (if used) integral strategy            ... SPLIT-RIJ (Revised 2003 algorithm where possible)
Printlevel                                  ...      1
Contraction scheme used                     ... SEGMENTED contraction
Prescreening option                         ... SCHWARTZ
   Thresh                                   ... 2.500e-11
   Tcut                                     ... 2.500e-12
   Tpresel                                  ... 2.500e-12 
Coulomb Range Separation                    ... NOT USED
Exchange Range Separation                   ... NOT USED
Multipole approximations                    ... NOT USED
Finite Nucleus Model                        ... NOT USED
CABS basis                                  ... NOT available
Auxiliary Coulomb fitting basis             ... AVAILABLE
   # of basis functions in Aux-J            ...    663
   # of shells in Aux-J                     ...    289
   Maximum angular momentum in Aux-J        ...      4
Auxiliary J/K fitting basis                 ... NOT available
Auxiliary Correlation fitting basis         ... NOT available
Auxiliary 'external' fitting basis          ... NOT available

Checking pre-screening integrals            ... done (  0.0 sec) Dimension = 215
Check shell pair data                       ... done (  0.0 sec)
Shell pair information
Shell pair cut-off parameter TPreSel        ...   2.5e-12
Total number of shell pairs                 ...     23220
Shell pairs after pre-screening             ...     17406
Total number of primitive shell pairs       ...     87201
Primitive shell pairs kept                  ...     41744
          la=0 lb=0:   7056 shell pairs
          la=1 lb=0:   6198 shell pairs
          la=1 lb=1:   1350 shell pairs
          la=2 lb=0:   1830 shell pairs
          la=2 lb=1:    838 shell pairs
          la=2 lb=2:    134 shell pairs

Calculating one electron integrals          ... done (  0.0 sec)
Calculating RI/J V-Matrix + Cholesky decomp.... done (  0.0 sec)
Calculating Nuclear repulsion               ... done (  0.0 sec) ENN=   1472.821998839690 Eh

Diagonalization of the overlap matrix:
Smallest eigenvalue                        ... 4.930e-05
Time for diagonalization                   ...    0.014 sec
Threshold for overlap eigenvalues          ... 1.000e-07
Number of eigenvalues below threshold      ... 0
Time for construction of square roots      ...    0.007 sec
Total time needed                          ...    0.023 sec

-------------------
DFT GRID GENERATION
-------------------

General Integration Accuracy     IntAcc      ... 4.959
Radial Grid Type                 RadialGrid  ... OptM3 with GC (2021)
Angular Grid (max. ang.)         AngularGrid ... 6 (Lebedev-590)
Angular grid pruning method      GridPruning ... 4 (adaptive)
Weight generation scheme         WeightScheme... mBecke (2022)
Basis function cutoff            BFCut       ... 1.0000e-11
Integration weight cutoff        WCut        ... 1.0000e-14
Partially contracted basis set               ... off
Rotationally invariant grid construction     ... off
Angular grids for H and He will be reduced by one unit
Diffuse basis detected: some atoms will have their outermost
                        angular grid increased by 1.

Total number of grid points                  ...   403324
Total number of batches                      ...     6319
Average number of points per batch           ...       63
Average number of grid points per atom       ...    11524
Initializing property integral containers    ... done (  0.0 sec)

SHARK setup successfully completed in   3.3 seconds

Maximum memory used throughout the entire STARTUP-calculation: 92.8 MB


           ************************************************************
           *        Program running with 16 parallel MPI-processes    *
           *              working on a common directory               *
           ************************************************************
-------------------------------------------------------------------------------
                                 ORCA GUESS
                   Start orbitals & Density for SCF / CASSCF
-------------------------------------------------------------------------------

------------
SCF SETTINGS
------------
Hamiltonian:
 Density Functional     Method          .... DFT(GTOs)
 Exchange Functional    Exchange        .... B973C
 Correlation Functional Correlation     .... B973C
 Gradients option       PostSCFGGA      .... off
 RI-approximation to the Coulomb term is turned on
   Number of AuxJ basis functions       .... 663


General Settings:
 Integral files         IntName         .... m1_01_Vitamin_B1-GFN2_012-B97-3C-TZ
 Hartree-Fock type      HFTyp           .... RHF
 Total Charge           Charge          ....    1
 Multiplicity           Mult            ....    1
 Number of Electrons    NEL             ....  140
 Basis Dimension        Dim             ....  401
 Nuclear Repulsion      ENuc            ....   1472.8219988397 Eh

Convergence Acceleration:
 AO-DIIS                CNVDIIS         .... on
   Start iteration      DIISMaxIt       ....    12
   Startup error        DIISStart       ....  0.200000
   # of expansion vecs  DIISMaxEq       ....     5
   Bias factor          DIISBfac        ....   1.050
   Max. coefficient     DIISMaxC        ....  10.000
 MO-DIIS                CNVKDIIS        .... off
 Trust-Rad. Augm. Hess. CNVTRAH         .... off
 SOSCF                  CNVSOSCF        .... on
   Start iteration      SOSCFMaxIt      ....   150
   Startup grad/error   SOSCFStart      ....  0.003300
   Hessian update       SOSCFHessUp     .... L-BFGS
 Level Shifting         CNVShift        .... on
   Level shift para.    LevelShift      ....    0.2500
   Turn off err/grad.   ShiftErr        ....    0.0010
 Zerner damping         CNVZerner       .... off
 Static damping         CNVDamp         .... on
   Fraction old density DampFac         ....    0.7000
   Max. Damping (<1)    DampMax         ....    0.9800
   Min. Damping (>=0)   DampMin         ....    0.0000
   Turn off err/grad.   DampErr         ....    0.1000

SCF Procedure:
 Maximum # iterations   MaxIter         ....   800
 SCF integral mode      SCFMode         .... Direct
   Integral package                     .... SHARK and LIBINT hybrid scheme
 Reset frequency        DirectResetFreq ....    20
 Integral Threshold     Thresh          ....  2.500e-11 Eh
 Primitive CutOff       TCut            ....  2.500e-12 Eh

Convergence Tolerance:
 Convergence Check Mode ConvCheckMode   .... Total+1el-Energy
 Convergence forced     ConvForced      .... 0
 Energy Change          TolE            ....  1.000e-08 Eh
 1-El. energy change                    ....  1.000e-05 Eh
 Orbital Gradient       TolG            ....  1.000e-05
 Orbital Rotation angle TolX            ....  1.000e-05
 DIIS Error             TolErr          ....  5.000e-07

--------------------------------
INITIAL GUESS: MINIMAL BASIS EHT
--------------------------------
The minimal basis has 111 functions
EHT matrix was diagonalized
Basis set overlap was calculated now projecting the orbitals
Using GuessMode=FMatrix for the initial guess
C*T matrix was formed
Effective Fockian was calculated
Effective Fockian was diagonalized
Initial density was built
                      ------------------
                      INITIAL GUESS DONE
                      ------------------
             **** ENERGY FILE WAS UPDATED (m1_01_Vitamin_B1-GFN2_012-B97-3C-TZ.en.tmp) ****
Finished Guess after   0.2 sec
Maximum memory used throughout the entire GUESS-calculation: 32.0 MB


           ************************************************************
           *        Program running with 16 parallel MPI-processes    *
           *              working on a common directory               *
           ************************************************************

-------------------------------------------------------------------------------------------
                                      ORCA LEAN-SCF
                              memory conserving SCF solver
-------------------------------------------------------------------------------------------

----------------------------------------D-I-I-S--------------------------------------------
Iteration    Energy (Eh)           Delta-E    RMSDP     MaxDP     DIISErr   Damp  Time(sec)
-------------------------------------------------------------------------------------------
               ***  Starting incremental Fock matrix formation  ***
    1    -1156.3831652409660364     0.00e+00  4.90e-03  1.76e-01  8.23e-01  0.700   0.6
Warning: op=0 Small HOMO/LUMO gap (  -0.029) - skipping pre-diagonalization
         Will do a full diagonalization
    2    -1157.3363350123129294    -9.53e-01  4.64e-03  2.27e-01  5.61e-01  0.700   0.6
    3    -1157.8752692986829516    -5.39e-01  2.54e-03  1.17e-01  3.80e-01  0.700   0.6
    4    -1158.2383633326073777    -3.63e-01  1.68e-03  5.94e-02  2.57e-01  0.700   0.6
                               ***Turning on AO-DIIS***
    5    -1158.4979208655765888    -2.60e-01  1.37e-03  5.24e-02  1.73e-01  0.700   0.6
    6    -1158.6792965833030848    -1.81e-01  9.81e-04  4.39e-02  1.21e-01  0.700   0.6
    7    -1158.8066196432366723    -1.27e-01  6.89e-04  3.23e-02  8.48e-02  0.700   0.6
    8    -1158.8961255690676353    -8.95e-02  1.66e-03  7.22e-02  5.99e-02  0.000   0.6
    9    -1159.1048581227948944    -2.09e-01  2.07e-04  1.24e-02  6.81e-03  0.000   0.6
   10    -1159.1052283306682966    -3.70e-04  8.26e-05  3.23e-03  4.52e-03  0.000   0.6
                              *** Initializing SOSCF ***
---------------------------------------S-O-S-C-F--------------------------------------
Iteration    Energy (Eh)           Delta-E    RMSDP     MaxDP     MaxGrad    Time(sec)
--------------------------------------------------------------------------------------
   11    -1159.1053851057001793    -1.57e-04  5.70e-05  1.89e-03  8.90e-04     0.6
               *** Restarting incremental Fock matrix formation ***
   12    -1159.1054249490778147    -3.98e-05  1.15e-04  3.25e-03  1.24e-03     0.6
   13    -1159.1054605834981430    -3.56e-05  8.43e-05  2.98e-03  2.81e-04     0.5
   14    -1159.1054510537085207     9.53e-06  5.02e-05  2.03e-03  4.29e-04     0.5
   15    -1159.1054664542573391    -1.54e-05  1.25e-05  4.79e-04  5.92e-05     0.5
   16    -1159.1054657989304815     6.55e-07  8.45e-06  4.20e-04  1.27e-04     0.5
   17    -1159.1054666602196903    -8.61e-07  4.00e-06  1.98e-04  1.23e-05     0.5
   18    -1159.1054666382567575     2.20e-08  2.26e-06  1.35e-04  2.69e-05     0.5
   19    -1159.1054666716138399    -3.34e-08  2.38e-06  1.65e-04  1.67e-06     0.5
                  *** Gradient check signals convergence ***

               *****************************************************
               *                     SUCCESS                       *
               *           SCF CONVERGED AFTER  19 CYCLES          *
               *****************************************************

             **** ENERGY FILE WAS UPDATED (m1_01_Vitamin_B1-GFN2_012-B97-3C-TZ.en.tmp) ****

----------------
TOTAL SCF ENERGY
----------------

Total Energy       :      -1159.10546667161384 Eh          -31540.86325 eV

Components:
Nuclear Repulsion  :       1472.82199883968974 Eh           40077.52409 eV
Electronic Energy  :      -2631.92746551130358 Eh          -71618.38735 eV
One Electron Energy:      -4490.69669743430768 Eh         -122198.06957 eV
Two Electron Energy:       1858.76923192300410 Eh           50579.68222 eV

Virial components:
Potential Energy   :      -2314.91260117669754 Eh          -62991.97433 eV
Kinetic Energy     :       1155.80713450508392 Eh           31451.11107 eV
Virial Ratio       :          2.00285370462602

DFT components:
N(Alpha)           :       70.000006697993 electrons
N(Beta)            :       70.000006697993 electrons
N(Total)           :      140.000013395986 electrons
E(XC)              :     -132.656950536327 Eh       

---------------
SCF CONVERGENCE
---------------

  Last Energy change         ...    3.3357e-08  Tolerance :   1.0000e-08
  Last MAX-Density change    ...    1.6543e-04  Tolerance :   1.0000e-07
  Last RMS-Density change    ...    2.3777e-06  Tolerance :   5.0000e-09
  Last DIIS Error            ...    8.8951e-04  Tolerance :   5.0000e-07
  Last Orbital Gradient      ...    1.6653e-06  Tolerance :   1.0000e-05
  Last Orbital Rotation      ...    6.9628e-06  Tolerance :   1.0000e-05


----------------
ORBITAL ENERGIES
----------------

  NO   OCC          E(Eh)            E(eV) 
   0   2.0000     -88.232125     -2400.9182 
   1   2.0000     -18.891480      -514.0633 
   2   2.0000     -14.237167      -387.4130 
   3   2.0000     -14.123853      -384.3296 
   4   2.0000     -14.081668      -383.1817 
   5   2.0000     -14.075608      -383.0168 
   6   2.0000     -10.124871      -275.5117 
   7   2.0000     -10.100467      -274.8477 
   8   2.0000     -10.099819      -274.8301 
   9   2.0000     -10.091330      -274.5990 
  10   2.0000     -10.087341      -274.4905 
  11   2.0000     -10.077047      -274.2104 
  12   2.0000     -10.058227      -273.6983 
  13   2.0000     -10.048314      -273.4285 
  14   2.0000     -10.046207      -273.3712 
  15   2.0000     -10.038421      -273.1593 
  16   2.0000     -10.030439      -272.9421 
  17   2.0000      -9.965625      -271.1784 
  18   2.0000      -7.921109      -215.5443 
  19   2.0000      -5.951712      -161.9543 
  20   2.0000      -5.945499      -161.7852 
  21   2.0000      -5.943652      -161.7350 
  22   2.0000      -1.114301       -30.3217 
  23   2.0000      -1.092702       -29.7339 
  24   2.0000      -1.028928       -27.9986 
  25   2.0000      -0.974227       -26.5101 
  26   2.0000      -0.947870       -25.7929 
  27   2.0000      -0.905175       -24.6311 
  28   2.0000      -0.893532       -24.3143 
  29   2.0000      -0.867173       -23.5970 
  30   2.0000      -0.839861       -22.8538 
  31   2.0000      -0.805673       -21.9235 
  32   2.0000      -0.784397       -21.3445 
  33   2.0000      -0.750619       -20.4254 
  34   2.0000      -0.741302       -20.1719 
  35   2.0000      -0.709433       -19.3046 
  36   2.0000      -0.691933       -18.8285 
  37   2.0000      -0.677159       -18.4264 
  38   2.0000      -0.666902       -18.1473 
  39   2.0000      -0.635096       -17.2818 
  40   2.0000      -0.624685       -16.9985 
  41   2.0000      -0.614343       -16.7171 
  42   2.0000      -0.602890       -16.4055 
  43   2.0000      -0.580649       -15.8003 
  44   2.0000      -0.572605       -15.5814 
  45   2.0000      -0.561600       -15.2819 
  46   2.0000      -0.553366       -15.0579 
  47   2.0000      -0.550114       -14.9694 
  48   2.0000      -0.528382       -14.3780 
  49   2.0000      -0.526102       -14.3160 
  50   2.0000      -0.521763       -14.1979 
  51   2.0000      -0.507860       -13.8196 
  52   2.0000      -0.504502       -13.7282 
  53   2.0000      -0.499861       -13.6019 
  54   2.0000      -0.495995       -13.4967 
  55   2.0000      -0.491279       -13.3684 
  56   2.0000      -0.483336       -13.1522 
  57   2.0000      -0.478127       -13.0105 
  58   2.0000      -0.455616       -12.3979 
  59   2.0000      -0.452046       -12.3008 
  60   2.0000      -0.434877       -11.8336 
  61   2.0000      -0.431161       -11.7325 
  62   2.0000      -0.418319       -11.3830 
  63   2.0000      -0.415635       -11.3100 
  64   2.0000      -0.374148       -10.1811 
  65   2.0000      -0.371424       -10.1070 
  66   2.0000      -0.361907        -9.8480 
  67   2.0000      -0.355861        -9.6835 
  68   2.0000      -0.321718        -8.7544 
  69   2.0000      -0.306894        -8.3510 
  70   0.0000      -0.228363        -6.2141 
  71   0.0000      -0.170667        -4.6441 
  72   0.0000      -0.162545        -4.4231 
  73   0.0000      -0.147968        -4.0264 
  74   0.0000      -0.142862        -3.8875 
  75   0.0000      -0.111868        -3.0441 
  76   0.0000      -0.107341        -2.9209 
  77   0.0000      -0.094231        -2.5642 
  78   0.0000      -0.085686        -2.3316 
  79   0.0000      -0.070968        -1.9311 
  80   0.0000      -0.060047        -1.6340 
*Only the first 10 virtual orbitals were printed.

                    ********************************
                    * MULLIKEN POPULATION ANALYSIS *
                    ********************************

-----------------------
MULLIKEN ATOMIC CHARGES
-----------------------
   0 S :    0.338196
   1 O :   -0.589871
   2 N :    0.089032
   3 N :   -0.160328
   4 N :   -0.083079
   5 N :   -0.640671
   6 C :    0.016786
   7 C :   -0.532457
   8 C :   -0.090157
   9 C :   -0.244437
  10 C :   -0.052514
  11 C :   -0.156256
  12 C :   -0.538638
  13 C :   -0.219506
  14 C :    0.252633
  15 C :   -0.106027
  16 C :    0.099253
  17 C :   -0.551739
  18 H :    0.253234
  19 H :    0.241615
  20 H :    0.224789
  21 H :    0.212825
  22 H :    0.262603
  23 H :    0.211724
  24 H :    0.227605
  25 H :    0.206356
  26 H :    0.202551
  27 H :    0.192702
  28 H :    0.173757
  29 H :    0.345908
  30 H :    0.368109
  31 H :    0.455522
  32 H :    0.198407
  33 H :    0.196899
  34 H :    0.195173
Sum of atomic charges:    1.0000000

--------------------------------
MULLIKEN REDUCED ORBITAL CHARGES
--------------------------------
  0 S s       :     5.896228  s :     5.896228
      pz      :     3.303891  p :     9.626765
      px      :     3.346568
      py      :     2.976307
      dz2     :     0.020136  d :     0.138812
      dxz     :     0.023347
      dyz     :     0.043167
      dx2y2   :     0.035818
      dxy     :     0.016345

  1 O s       :     3.809576  s :     3.809576
      pz      :     1.391655  p :     4.745615
      px      :     1.502978
      py      :     1.850982
      dz2     :     0.017544  d :     0.034680
      dxz     :     0.006007
      dyz     :     0.006939
      dx2y2   :     0.005327
      dxy     :    -0.001136

  2 N s       :     3.266575  s :     3.266575
      pz      :     1.165831  p :     3.583759
      px      :     1.313740
      py      :     1.104189
      dz2     :     0.014242  d :     0.060633
      dxz     :     0.009598
      dyz     :     0.015475
      dx2y2   :     0.011452
      dxy     :     0.009867

  3 N s       :     3.473517  s :     3.473517
      pz      :     1.363496  p :     3.641788
      px      :     1.083208
      py      :     1.195083
      dz2     :     0.009584  d :     0.045024
      dxz     :     0.013543
      dyz     :     0.008069
      dx2y2   :     0.006296
      dxy     :     0.007532

  4 N s       :     3.482461  s :     3.482461
      pz      :     0.961535  p :     3.554498
      px      :     1.330159
      py      :     1.262804
      dz2     :     0.008629  d :     0.046119
      dxz     :     0.013898
      dyz     :     0.010443
      dx2y2   :     0.007423
      dxy     :     0.005727

  5 N s       :     3.455439  s :     3.455439
      pz      :     1.268000  p :     4.151642
      px      :     1.460583
      py      :     1.423059
      dz2     :     0.006870  d :     0.033590
      dxz     :     0.005184
      dyz     :     0.010208
      dx2y2   :     0.005077
      dxy     :     0.006252

  6 C s       :     3.100385  s :     3.100385
      pz      :     0.892986  p :     2.822455
      px      :     0.998113
      py      :     0.931355
      dz2     :     0.013759  d :     0.060374
      dxz     :     0.008324
      dyz     :     0.015342
      dx2y2   :     0.009799
      dxy     :     0.013150

  7 C s       :     3.412574  s :     3.412574
      pz      :     1.018391  p :     3.063900
      px      :     1.133795
      py      :     0.911714
      dz2     :     0.007353  d :     0.055983
      dxz     :     0.011107
      dyz     :     0.018376
      dx2y2   :     0.012693
      dxy     :     0.006454

  8 C s       :     3.188016  s :     3.188016
      pz      :     0.881146  p :     2.856330
      px      :     0.963211
      py      :     1.011972
      dz2     :     0.008231  d :     0.045811
      dxz     :     0.007125
      dyz     :     0.013079
      dx2y2   :     0.008856
      dxy     :     0.008520

  9 C s       :     3.143825  s :     3.143825
      pz      :     1.013965  p :     3.056431
      px      :     1.103080
      py      :     0.939387
      dz2     :     0.008667  d :     0.044180
      dxz     :     0.009442
      dyz     :     0.007353
      dx2y2   :     0.009179
      dxy     :     0.009541

 10 C s       :     3.126463  s :     3.126463
      pz      :     0.827446  p :     2.882073
      px      :     0.963512
      py      :     1.091116
      dz2     :     0.011679  d :     0.043977
      dxz     :     0.011547
      dyz     :     0.008231
      dx2y2   :     0.006383
      dxy     :     0.006137

 11 C s       :     3.187166  s :     3.187166
      pz      :     0.906805  p :     2.917320
      px      :     0.979641
      py      :     1.030874
      dz2     :     0.013957  d :     0.051771
      dxz     :     0.010877
      dyz     :     0.011423
      dx2y2   :     0.006515
      dxy     :     0.008998

 12 C s       :     3.273388  s :     3.273388
      pz      :     0.987438  p :     3.227824
      px      :     1.084793
      py      :     1.155592
      dz2     :     0.009982  d :     0.037426
      dxz     :     0.010991
      dyz     :     0.002573
      dx2y2   :     0.004895
      dxy     :     0.008986

 13 C s       :     3.297511  s :     3.297511
      pz      :     0.877216  p :     2.857802
      px      :     0.827170
      py      :     1.153416
      dz2     :     0.013435  d :     0.064193
      dxz     :     0.014641
      dyz     :     0.007417
      dx2y2   :     0.013518
      dxy     :     0.015182

 14 C s       :     3.008581  s :     3.008581
      pz      :     0.975438  p :     2.654124
      px      :     0.837781
      py      :     0.840905
      dz2     :     0.021531  d :     0.084662
      dxz     :     0.017693
      dyz     :     0.013854
      dx2y2   :     0.018513
      dxy     :     0.013071

 15 C s       :     3.186212  s :     3.186212
      pz      :     1.018396  p :     2.858930
      px      :     0.896531
      py      :     0.944004
      dz2     :     0.018158  d :     0.060885
      dxz     :     0.012617
      dyz     :     0.010960
      dx2y2   :     0.009910
      dxy     :     0.009239

 16 C s       :     3.149718  s :     3.149718
      pz      :     0.891120  p :     2.666801
      px      :     0.908487
      py      :     0.867194
      dz2     :     0.020725  d :     0.084227
      dxz     :     0.022989
      dyz     :     0.017059
      dx2y2   :     0.012372
      dxy     :     0.011082

 17 C s       :     3.305510  s :     3.305510
      pz      :     1.014296  p :     3.210017
      px      :     1.067683
      py      :     1.128039
      dz2     :     0.005861  d :     0.036211
      dxz     :     0.008490
      dyz     :     0.009041
      dx2y2   :     0.010229
      dxy     :     0.002591

 18 H s       :     0.746766  s :     0.746766

 19 H s       :     0.758385  s :     0.758385

 20 H s       :     0.775211  s :     0.775211

 21 H s       :     0.787175  s :     0.787175

 22 H s       :     0.737397  s :     0.737397

 23 H s       :     0.788276  s :     0.788276

 24 H s       :     0.772395  s :     0.772395

 25 H s       :     0.793644  s :     0.793644

 26 H s       :     0.797449  s :     0.797449

 27 H s       :     0.807298  s :     0.807298

 28 H s       :     0.826243  s :     0.826243

 29 H s       :     0.654092  s :     0.654092

 30 H s       :     0.631891  s :     0.631891

 31 H s       :     0.544478  s :     0.544478

 32 H s       :     0.801593  s :     0.801593

 33 H s       :     0.803101  s :     0.803101

 34 H s       :     0.804827  s :     0.804827



                     *******************************
                     * LOEWDIN POPULATION ANALYSIS *
                     *******************************

----------------------
LOEWDIN ATOMIC CHARGES
----------------------
   0 S :    0.864242
   1 O :   -0.865729
   2 N :   -0.044125
   3 N :   -0.189815
   4 N :   -0.190216
   5 N :   -0.414054
   6 C :   -0.018303
   7 C :   -0.159567
   8 C :   -0.216769
   9 C :   -0.249928
  10 C :   -0.167312
  11 C :   -0.269707
  12 C :   -0.393502
  13 C :    0.026941
  14 C :    0.095408
  15 C :   -0.038938
  16 C :    0.078926
  17 C :   -0.410064
  18 H :    0.188751
  19 H :    0.183625
  20 H :    0.197278
  21 H :    0.189124
  22 H :    0.200825
  23 H :    0.185788
  24 H :    0.197401
  25 H :    0.186160
  26 H :    0.186673
  27 H :    0.175239
  28 H :    0.163168
  29 H :    0.286141
  30 H :    0.302262
  31 H :    0.377597
  32 H :    0.175788
  33 H :    0.181930
  34 H :    0.184765

-------------------------------
LOEWDIN REDUCED ORBITAL CHARGES
-------------------------------
  0 S s       :     5.322115  s :     5.322115
      pz      :     3.307251  p :     9.648341
      px      :     3.325011
      py      :     3.016079
      dz2     :     0.021403  d :     0.165302
      dxz     :     0.026591
      dyz     :     0.052080
      dx2y2   :     0.046015
      dxy     :     0.019213

  1 O s       :     3.550435  s :     3.550435
      pz      :     1.422130  p :     4.884206
      px      :     1.601722
      py      :     1.860354
      dz2     :     0.107804  d :     0.431087
      dxz     :     0.073752
      dyz     :     0.055131
      dx2y2   :     0.103110
      dxy     :     0.091289

  2 N s       :     3.064888  s :     3.064888
      pz      :     1.269833  p :     3.858543
      px      :     1.327992
      py      :     1.260719
      dz2     :     0.028748  d :     0.120694
      dxz     :     0.019251
      dyz     :     0.031712
      dx2y2   :     0.021858
      dxy     :     0.019125

  3 N s       :     3.206802  s :     3.206802
      pz      :     1.471474  p :     3.899928
      px      :     1.183139
      py      :     1.245315
      dz2     :     0.016130  d :     0.083085
      dxz     :     0.025207
      dyz     :     0.012772
      dx2y2   :     0.012099
      dxy     :     0.016878

  4 N s       :     3.219834  s :     3.219834
      pz      :     1.177971  p :     3.884129
      px      :     1.405821
      py      :     1.300337
      dz2     :     0.020916  d :     0.086253
      dxz     :     0.027464
      dyz     :     0.020556
      dx2y2   :     0.009304
      dxy     :     0.008013

  5 N s       :     3.189582  s :     3.189582
      pz      :     1.262443  p :     4.168681
      px      :     1.475033
      py      :     1.431205
      dz2     :     0.011326  d :     0.055790
      dxz     :     0.009397
      dyz     :     0.016110
      dx2y2   :     0.008491
      dxy     :     0.010466

  6 C s       :     2.836978  s :     2.836978
      pz      :     1.082732  p :     3.053342
      px      :     1.004164
      py      :     0.966446
      dz2     :     0.028239  d :     0.127984
      dxz     :     0.016284
      dyz     :     0.033747
      dx2y2   :     0.021039
      dxy     :     0.028673

  7 C s       :     2.904792  s :     2.904792
      pz      :     1.033085  p :     3.151739
      px      :     1.130673
      py      :     0.987981
      dz2     :     0.013433  d :     0.103036
      dxz     :     0.019966
      dyz     :     0.036190
      dx2y2   :     0.022445
      dxy     :     0.011002

  8 C s       :     2.920021  s :     2.920021
      pz      :     1.052954  p :     3.201895
      px      :     1.054615
      py      :     1.094326
      dz2     :     0.017730  d :     0.094853
      dxz     :     0.016142
      dyz     :     0.027673
      dx2y2   :     0.017231
      dxy     :     0.016077

  9 C s       :     2.918798  s :     2.918798
      pz      :     1.082584  p :     3.252918
      px      :     1.123865
      py      :     1.046469
      dz2     :     0.016118  d :     0.078213
      dxz     :     0.015218
      dyz     :     0.013478
      dx2y2   :     0.016406
      dxy     :     0.016993

 10 C s       :     2.860628  s :     2.860628
      pz      :     1.030896  p :     3.213203
      px      :     1.080454
      py      :     1.101853
      dz2     :     0.025684  d :     0.093480
      dxz     :     0.025367
      dyz     :     0.016701
      dx2y2   :     0.012441
      dxy     :     0.013288

 11 C s       :     2.970013  s :     2.970013
      pz      :     1.017309  p :     3.191545
      px      :     1.037734
      py      :     1.136502
      dz2     :     0.029396  d :     0.108150
      dxz     :     0.023772
      dyz     :     0.026213
      dx2y2   :     0.013759
      dxy     :     0.015010

 12 C s       :     2.963232  s :     2.963232
      pz      :     1.073971  p :     3.369045
      px      :     1.128673
      py      :     1.166401
      dz2     :     0.017384  d :     0.061224
      dxz     :     0.018772
      dyz     :     0.004310
      dx2y2   :     0.007247
      dxy     :     0.013511

 13 C s       :     2.870065  s :     2.870065
      pz      :     0.965901  p :     2.974997
      px      :     0.916424
      py      :     1.092672
      dz2     :     0.028254  d :     0.127998
      dxz     :     0.030485
      dyz     :     0.013015
      dx2y2   :     0.027353
      dxy     :     0.028891

 14 C s       :     2.807784  s :     2.807784
      pz      :     1.048281  p :     2.917076
      px      :     0.939890
      py      :     0.928905
      dz2     :     0.049055  d :     0.179732
      dxz     :     0.038920
      dyz     :     0.027699
      dx2y2   :     0.034557
      dxy     :     0.029501

 15 C s       :     2.880724  s :     2.880724
      pz      :     1.056179  p :     3.033916
      px      :     1.005755
      py      :     0.971982
      dz2     :     0.035394  d :     0.124299
      dxz     :     0.027659
      dyz     :     0.019982
      dx2y2   :     0.020150
      dxy     :     0.021114

 16 C s       :     2.827097  s :     2.827097
      pz      :     1.036623  p :     2.914623
      px      :     0.971564
      py      :     0.906435
      dz2     :     0.042507  d :     0.179354
      dxz     :     0.051273
      dyz     :     0.037405
      dx2y2   :     0.022185
      dxy     :     0.025985

 17 C s       :     2.980948  s :     2.980948
      pz      :     1.097193  p :     3.370471
      px      :     1.123001
      py      :     1.150276
      dz2     :     0.009813  d :     0.058646
      dxz     :     0.014676
      dyz     :     0.014613
      dx2y2   :     0.015800
      dxy     :     0.003743

 18 H s       :     0.811249  s :     0.811249

 19 H s       :     0.816375  s :     0.816375

 20 H s       :     0.802722  s :     0.802722

 21 H s       :     0.810876  s :     0.810876

 22 H s       :     0.799175  s :     0.799175

 23 H s       :     0.814212  s :     0.814212

 24 H s       :     0.802599  s :     0.802599

 25 H s       :     0.813840  s :     0.813840

 26 H s       :     0.813327  s :     0.813327

 27 H s       :     0.824761  s :     0.824761

 28 H s       :     0.836832  s :     0.836832

 29 H s       :     0.713859  s :     0.713859

 30 H s       :     0.697738  s :     0.697738

 31 H s       :     0.622403  s :     0.622403

 32 H s       :     0.824212  s :     0.824212

 33 H s       :     0.818070  s :     0.818070

 34 H s       :     0.815235  s :     0.815235



                      *****************************
                      * MAYER POPULATION ANALYSIS *
                      *****************************

  NA   - Mulliken gross atomic population
  ZA   - Total nuclear charge
  QA   - Mulliken gross atomic charge
  VA   - Mayer's total valence
  BVA  - Mayer's bonded valence
  FA   - Mayer's free valence

  ATOM       NA         ZA         QA         VA         BVA        FA
  0 S     15.6618    16.0000     0.3382     2.7623     2.7623     0.0000
  1 O      8.5899     8.0000    -0.5899     1.7636     1.7636     0.0000
  2 N      6.9110     7.0000     0.0890     3.3680     3.3680     0.0000
  3 N      7.1603     7.0000    -0.1603     3.1761     3.1761     0.0000
  4 N      7.0831     7.0000    -0.0831     3.1063     3.1063    -0.0000
  5 N      7.6407     7.0000    -0.6407     2.9904     2.9904    -0.0000
  6 C      5.9832     6.0000     0.0168     4.0626     4.0626    -0.0000
  7 C      6.5325     6.0000    -0.5325     3.5930     3.5930    -0.0000
  8 C      6.0902     6.0000    -0.0902     3.5684     3.5684    -0.0000
  9 C      6.2444     6.0000    -0.2444     3.6124     3.6124    -0.0000
 10 C      6.0525     6.0000    -0.0525     3.4228     3.4228     0.0000
 11 C      6.1563     6.0000    -0.1563     3.8187     3.8187     0.0000
 12 C      6.5386     6.0000    -0.5386     3.8210     3.8210     0.0000
 13 C      6.2195     6.0000    -0.2195     3.7818     3.7818    -0.0000
 14 C      5.7474     6.0000     0.2526     3.9804     3.9804     0.0000
 15 C      6.1060     6.0000    -0.1060     3.9778     3.9778    -0.0000
 16 C      5.9007     6.0000     0.0993     3.9609     3.9609     0.0000
 17 C      6.5517     6.0000    -0.5517     3.7101     3.7101     0.0000
 18 H      0.7468     1.0000     0.2532     0.8937     0.8937    -0.0000
 19 H      0.7584     1.0000     0.2416     0.9213     0.9213    -0.0000
 20 H      0.7752     1.0000     0.2248     0.9464     0.9464    -0.0000
 21 H      0.7872     1.0000     0.2128     0.9464     0.9464    -0.0000
 22 H      0.7374     1.0000     0.2626     0.9058     0.9058    -0.0000
 23 H      0.7883     1.0000     0.2117     0.9365     0.9365     0.0000
 24 H      0.7724     1.0000     0.2276     0.9387     0.9387     0.0000
 25 H      0.7936     1.0000     0.2064     0.9449     0.9449     0.0000
 26 H      0.7974     1.0000     0.2026     0.9370     0.9370    -0.0000
 27 H      0.8073     1.0000     0.1927     0.9252     0.9252    -0.0000
 28 H      0.8262     1.0000     0.1738     0.9406     0.9406    -0.0000
 29 H      0.6541     1.0000     0.3459     0.8567     0.8567    -0.0000
 30 H      0.6319     1.0000     0.3681     0.8639     0.8639    -0.0000
 31 H      0.5445     1.0000     0.4555     0.7680     0.7680    -0.0000
 32 H      0.8016     1.0000     0.1984     0.9564     0.9564     0.0000
 33 H      0.8031     1.0000     0.1969     0.9494     0.9494     0.0000
 34 H      0.8048     1.0000     0.1952     0.9453     0.9453     0.0000

  Mayer bond orders larger than 0.100000
B(  0-S ,  8-C ) :   1.2245 B(  0-S , 11-C ) :   1.3205 B(  1-O , 13-C ) :   0.9178 
B(  1-O , 31-H ) :   0.7459 B(  2-N ,  6-C ) :   1.2408 B(  2-N ,  7-C ) :   0.8346 
B(  2-N , 11-C ) :   1.3738 B(  3-N , 14-C ) :   1.5122 B(  3-N , 16-C ) :   1.5549 
B(  4-N , 15-C ) :   1.6194 B(  4-N , 16-C ) :   1.4329 B(  5-N , 14-C ) :   1.1892 
B(  5-N , 29-H ) :   0.8342 B(  5-N , 30-H ) :   0.8089 B(  6-C ,  8-C ) :   1.5771 
[...]
 39:    745.27   0.005519   27.89  0.002311  (-0.041997 -0.013150  0.019349)
 40:    753.46   0.001228    6.20  0.000508  (-0.007273 -0.008652  0.019511)
 41:    771.65   0.002635   13.32  0.001066  (-0.021199  0.017963 -0.017132)
 42:    799.63   0.000604    3.05  0.000236  ( 0.005849 -0.013336  0.004852)
 43:    806.13   0.000655    3.31  0.000253  ( 0.011862 -0.009991 -0.003587)
 44:    886.71   0.002961   14.96  0.001042  ( 0.007006  0.012937  0.028733)
 45:    904.33   0.001537    7.76  0.000530  (-0.016099  0.010530 -0.012656)
 46:    928.12   0.000177    0.89  0.000059  ( 0.006354 -0.003397  0.002737)
 47:    933.76   0.000101    0.51  0.000034  (-0.001067  0.003760  0.004299)
 48:    958.80   0.001110    5.61  0.000361  (-0.015228 -0.008447  0.007623)
 49:    985.79   0.001349    6.82  0.000427  ( 0.008103  0.013523  0.013366)
 50:   1016.02   0.002121   10.72  0.000651  ( 0.009690 -0.007971 -0.022226)
 51:   1022.48   0.003547   17.92  0.001082  ( 0.020854 -0.000909  0.025432)
 52:   1049.76   0.000279    1.41  0.000083  (-0.005802  0.000965  0.006949)
 53:   1056.40   0.002960   14.96  0.000874  (-0.024555  0.010685  0.012543)
 54:   1063.65   0.000467    2.36  0.000137  ( 0.003323  0.001386  0.011140)
 55:   1079.14   0.007485   37.82  0.002164  ( 0.032153  0.001752  0.033579)
 56:   1090.53   0.003179   16.07  0.000910  ( 0.008631  0.006767  0.028098)
 57:   1117.89   0.001270    6.42  0.000355  (-0.015742 -0.010330 -0.000025)
 58:   1182.04   0.005469   27.64  0.001444  (-0.000568  0.019343  0.032700)
 59:   1189.25   0.000086    0.43  0.000023  ( 0.000906 -0.000513 -0.004632)
 60:   1208.25   0.003819   19.30  0.000986  ( 0.026142 -0.001931  0.017297)
 61:   1226.58   0.000419    2.12  0.000107  ( 0.000645  0.007609  0.006943)
 62:   1248.45   0.001413    7.14  0.000353  (-0.017249 -0.005996 -0.004436)
 63:   1271.87   0.004375   22.11  0.001073  ( 0.000298  0.005091 -0.032363)
 64:   1277.23   0.008492   42.92  0.002075  (-0.016619  0.010773  0.041020)
 65:   1308.24   0.000841    4.25  0.000201  ( 0.001015  0.003262 -0.013742)
 66:   1311.44   0.005374   27.16  0.001279  (-0.032357  0.001500 -0.015153)
 67:   1326.72   0.001357    6.86  0.000319  (-0.009872  0.010638  0.010414)
 68:   1361.50   0.000139    0.70  0.000032  ( 0.000268 -0.005063 -0.002496)
 69:   1383.69   0.002847   14.39  0.000642  (-0.022067  0.000236  0.012452)
 70:   1402.68   0.000853    4.31  0.000190  ( 0.006850  0.002964 -0.011576)
 71:   1404.28   0.000931    4.71  0.000207  ( 0.007081  0.005196 -0.011393)
 72:   1425.94   0.001554    7.85  0.000340  (-0.016355  0.007126 -0.004678)
 73:   1432.73   0.010481   52.97  0.002283  ( 0.030991  0.008302 -0.035406)
 74:   1435.91   0.001599    8.08  0.000347  ( 0.013610 -0.010126 -0.007727)
 75:   1463.53   0.032527  164.38  0.006936  (-0.066524 -0.016800  0.047202)
 76:   1466.22   0.002035   10.29  0.000433  (-0.012322 -0.005166 -0.015958)
 77:   1468.83   0.004317   21.82  0.000917  (-0.010971 -0.024865 -0.013361)
 78:   1482.46   0.015478   78.22  0.003258  (-0.036660 -0.041373  0.014227)
 79:   1487.64   0.002208   11.16  0.000463  ( 0.011751 -0.015106 -0.009839)
 80:   1489.43   0.006582   33.26  0.001379  (-0.008182 -0.014117 -0.033360)
 81:   1493.92   0.006967   35.21  0.001455  (-0.007381  0.035934  0.010470)
 82:   1515.43   0.002985   15.09  0.000615  ( 0.008786  0.023146  0.001342)
 83:   1522.79   0.001023    5.17  0.000210  (-0.003898  0.002662  0.013685)
 84:   1570.45   0.044845  226.63  0.008911  (-0.029911 -0.055088 -0.070582)
 85:   1606.20   0.008309   41.99  0.001614  ( 0.004522  0.019744 -0.034699)
 86:   1610.72   0.034054  172.09  0.006598  ( 0.064898  0.021846 -0.043688)
 87:   1671.22   0.042210  213.31  0.007882  ( 0.045981  0.074411  0.015180)
 88:   2971.93   0.008469   42.80  0.000889  (-0.029520  0.003160  0.002798)
 89:   3008.34   0.001355    6.85  0.000141  (-0.006068  0.009772  0.002868)
 90:   3014.77   0.000211    1.07  0.000022  ( 0.003987 -0.002072 -0.001280)
 91:   3018.70   0.003056   15.45  0.000316  (-0.007042 -0.010201  0.012740)
 92:   3020.43   0.001049    5.30  0.000108  ( 0.008238  0.006360 -0.000317)
 93:   3025.42   0.005841   29.52  0.000602  (-0.000048  0.023997 -0.005160)
 94:   3063.39   0.000449    2.27  0.000046  (-0.005904  0.002398 -0.002271)
 95:   3080.33   0.000469    2.37  0.000047  (-0.004374 -0.002798  0.004529)
 96:   3083.38   0.007210   36.44  0.000730  ( 0.001201 -0.010150 -0.025006)
 97:   3084.73   0.001224    6.18  0.000124  (-0.000085 -0.009183  0.006282)
 98:   3084.78   0.001196    6.04  0.000121  (-0.008424  0.003051 -0.006378)
 99:   3133.36   0.001124    5.68  0.000112  ( 0.003564  0.005069  0.008576)
100:   3138.15   0.000773    3.91  0.000077  ( 0.004672 -0.007407  0.000461)
101:   3225.00   0.003406   17.21  0.000330  (-0.009696  0.012940 -0.008250)
102:   3521.34   0.012549   63.42  0.001112  ( 0.011142  0.025071  0.018957)
103:   3635.32   0.004793   24.22  0.000411  (-0.005309 -0.004035  0.019157)
104:   3758.83   0.014475   73.15  0.001202  (-0.004490  0.009539  0.033024)

* The epsilon (eps) is given for a Dirac delta lineshape.
** The dipole moment derivative (T) already includes vibrational overlap.

The first frequency considered to be a vibration is 6
The total number of vibrations considered is 99


--------------------------
THERMOCHEMISTRY AT 298.15K
--------------------------

Temperature         ...   298.15 K
Pressure            ...     1.00 atm
Total Mass          ...   265.35 AMU
Quasi RRHO          ...     True
Cut-Off Frequency   ...     1.00 cm^-1

Throughout the following assumptions are being made:
  (1) The electronic state is orbitally nondegenerate
  (2) There are no thermally accessible electronically excited states
  (3) Hindered rotations indicated by low frequency modes are not
      treated as such but are treated as vibrations and this may
      cause some error
  (4) All equations used are the standard statistical mechanics
      equations for an ideal gas
  (5) All vibrations are strictly harmonic

freq.      18.89  E(vib)   ...       0.57 
freq.      23.89  E(vib)   ...       0.56 
freq.      35.51  E(vib)   ...       0.54 
freq.      37.84  E(vib)   ...       0.54 
freq.      51.48  E(vib)   ...       0.52 
freq.      90.90  E(vib)   ...       0.47 
freq.     119.78  E(vib)   ...       0.44 
freq.     130.33  E(vib)   ...       0.43 
freq.     142.58  E(vib)   ...       0.41 
freq.     189.07  E(vib)   ...       0.36 
freq.     204.74  E(vib)   ...       0.35 
freq.     209.16  E(vib)   ...       0.34 
freq.     235.80  E(vib)   ...       0.32 
freq.     270.49  E(vib)   ...       0.29 
freq.     292.39  E(vib)   ...       0.27 
freq.     307.87  E(vib)   ...       0.26 
freq.     323.25  E(vib)   ...       0.25 
freq.     326.49  E(vib)   ...       0.24 
freq.     343.45  E(vib)   ...       0.23 
freq.     403.46  E(vib)   ...       0.19 
freq.     409.49  E(vib)   ...       0.19 
freq.     433.78  E(vib)   ...       0.17 
freq.     469.13  E(vib)   ...       0.16 
freq.     494.30  E(vib)   ...       0.14 
freq.     506.42  E(vib)   ...       0.14 
freq.     526.00  E(vib)   ...       0.13 
freq.     570.53  E(vib)   ...       0.11 
freq.     579.77  E(vib)   ...       0.11 
freq.     601.76  E(vib)   ...       0.10 
freq.     623.87  E(vib)   ...       0.09 
freq.     640.76  E(vib)   ...       0.09 
freq.     654.96  E(vib)   ...       0.08 
freq.     688.36  E(vib)   ...       0.07 
freq.     745.27  E(vib)   ...       0.06 
freq.     753.46  E(vib)   ...       0.06 
freq.     771.65  E(vib)   ...       0.05 
freq.     799.63  E(vib)   ...       0.05 
freq.     806.13  E(vib)   ...       0.05 
freq.     886.71  E(vib)   ...       0.04 
freq.     904.33  E(vib)   ...       0.03 
freq.     928.12  E(vib)   ...       0.03 
freq.     933.76  E(vib)   ...       0.03 
freq.     958.80  E(vib)   ...       0.03 
freq.     985.79  E(vib)   ...       0.02 
freq.    1016.02  E(vib)   ...       0.02 
freq.    1022.48  E(vib)   ...       0.02 
freq.    1049.76  E(vib)   ...       0.02 
freq.    1056.40  E(vib)   ...       0.02 
freq.    1063.65  E(vib)   ...       0.02 
freq.    1079.14  E(vib)   ...       0.02 
freq.    1090.53  E(vib)   ...       0.02 
freq.    1117.89  E(vib)   ...       0.01 
freq.    1182.04  E(vib)   ...       0.01 
freq.    1189.25  E(vib)   ...       0.01 
freq.    1208.25  E(vib)   ...       0.01 
freq.    1226.58  E(vib)   ...       0.01 
freq.    1248.45  E(vib)   ...       0.01 
freq.    1271.87  E(vib)   ...       0.01 
freq.    1277.23  E(vib)   ...       0.01 
freq.    1308.24  E(vib)   ...       0.01 
freq.    1311.44  E(vib)   ...       0.01 
freq.    1326.72  E(vib)   ...       0.01 
freq.    1361.50  E(vib)   ...       0.01 
freq.    1383.69  E(vib)   ...       0.00 
freq.    1402.68  E(vib)   ...       0.00 
freq.    1404.28  E(vib)   ...       0.00 
freq.    1425.94  E(vib)   ...       0.00 
freq.    1432.73  E(vib)   ...       0.00 
freq.    1435.91  E(vib)   ...       0.00 
freq.    1463.53  E(vib)   ...       0.00 
freq.    1466.22  E(vib)   ...       0.00 
freq.    1468.83  E(vib)   ...       0.00 
freq.    1482.46  E(vib)   ...       0.00 
freq.    1487.64  E(vib)   ...       0.00 
freq.    1489.43  E(vib)   ...       0.00 
freq.    1493.92  E(vib)   ...       0.00 
freq.    1515.43  E(vib)   ...       0.00 
freq.    1522.79  E(vib)   ...       0.00 
freq.    1570.45  E(vib)   ...       0.00 
freq.    1606.20  E(vib)   ...       0.00 
freq.    1610.72  E(vib)   ...       0.00 
freq.    1671.22  E(vib)   ...       0.00 
freq.    2971.93  E(vib)   ...       0.00 
freq.    3008.34  E(vib)   ...       0.00 
freq.    3014.77  E(vib)   ...       0.00 
freq.    3018.70  E(vib)   ...       0.00 
freq.    3020.43  E(vib)   ...       0.00 
freq.    3025.42  E(vib)   ...       0.00 
freq.    3063.39  E(vib)   ...       0.00 
freq.    3080.33  E(vib)   ...       0.00 
freq.    3083.38  E(vib)   ...       0.00 
freq.    3084.73  E(vib)   ...       0.00 
freq.    3084.78  E(vib)   ...       0.00 
freq.    3133.36  E(vib)   ...       0.00 
freq.    3138.15  E(vib)   ...       0.00 
freq.    3225.00  E(vib)   ...       0.00 
freq.    3521.34  E(vib)   ...       0.00 
freq.    3635.32  E(vib)   ...       0.00 
freq.    3758.83  E(vib)   ...       0.00 

------------
INNER ENERGY
------------

The inner energy is: U= E(el) + E(ZPE) + E(vib) + E(rot) + E(trans)
    E(el)   - is the total energy from the electronic structure calculation
              = E(kin-el) + E(nuc-el) + E(el-el) + E(nuc-nuc)
    E(ZPE)  - the the zero temperature vibrational energy from the frequency calculation
    E(vib)  - the the finite temperature correction to E(ZPE) due to population
              of excited vibrational states
    E(rot)  - is the rotational thermal energy
    E(trans)- is the translational thermal energy

Summary of contributions to the inner energy U:
Electronic energy                ...  -1159.31655255 Eh
Zero point energy                ...      0.28486178 Eh     178.75 kcal/mol
Thermal vibrational correction   ...      0.01579472 Eh       9.91 kcal/mol
Thermal rotational correction    ...      0.00141627 Eh       0.89 kcal/mol
Thermal translational correction ...      0.00141627 Eh       0.89 kcal/mol
-----------------------------------------------------------------------
Total thermal energy                  -1159.01306350 Eh


Summary of corrections to the electronic energy:
(perhaps to be used in another calculation)
Total thermal correction                  0.01862726 Eh      11.69 kcal/mol
Non-thermal (ZPE) correction              0.28486178 Eh     178.75 kcal/mol
-----------------------------------------------------------------------
Total correction                          0.30348905 Eh     190.44 kcal/mol


--------
ENTHALPY
--------

The enthalpy is H = U + kB*T
                kB is Boltzmann's constant
Total thermal energy              ...  -1159.01306350 Eh 
Thermal Enthalpy correction       ...      0.00094421 Eh       0.59 kcal/mol
-----------------------------------------------------------------------
Total Enthalpy                    ...  -1159.01211929 Eh


Note: Only C1 symmetry has been detected, increase convergence thresholds 
      if your molecule has a higher symmetry. Symmetry factor of 1.0 is   
      used for the rotational entropy correction. 
 

Note: Rotational entropy computed according to Herzberg 
Infrared and Raman Spectra, Chapter V,1, Van Nostrand Reinhold, 1945 
Point Group:  C1, Symmetry Number:   1  
Rotational constants in cm-1:     0.028151     0.006156     0.005946 

Vibrational entropy computed according to the QRRHO of S. Grimme
Chem.Eur.J. 2012 18 9955 using a reference frequency of 100.0 cm-1


-------
ENTROPY
-------

The entropy contributions are T*S = T*(S(el)+S(vib)+S(rot)+S(trans))
     S(el)   - electronic entropy
     S(vib)  - vibrational entropy
     S(rot)  - rotational entropy
     S(trans)- translational entropy
The entropies will be listed as multiplied by the temperature to get
units of energy

Electronic entropy                ...      0.00000000 Eh      0.00 kcal/mol
Vibrational entropy               ...      0.02838366 Eh     17.81 kcal/mol
Rotational entropy                ...      0.01601881 Eh     10.05 kcal/mol
Translational entropy             ...      0.02025338 Eh     12.71 kcal/mol
-----------------------------------------------------------------------
Final entropy term                ...      0.06465586 Eh     40.57 kcal/mol

In case the symmetry of your molecule has not been determined correctly
or in case you have a reason to use a different symmetry number we print 
out the resulting rotational entropy values for sn=1,12:

 non-linear molecules -----------------------------------
|  sn= 1 | S(rot)=       0.01601881 Eh     10.05 kcal/mol|
|  sn= 2 | S(rot)=       0.01536436 Eh      9.64 kcal/mol|
|  sn= 3 | S(rot)=       0.01498153 Eh      9.40 kcal/mol|
|  sn= 4 | S(rot)=       0.01470990 Eh      9.23 kcal/mol|
|  sn= 5 | S(rot)=       0.01449921 Eh      9.10 kcal/mol|
|  sn= 6 | S(rot)=       0.01432707 Eh      8.99 kcal/mol|
|  sn= 7 | S(rot)=       0.01418152 Eh      8.90 kcal/mol|
|  sn= 8 | S(rot)=       0.01405545 Eh      8.82 kcal/mol|
|  sn= 9 | S(rot)=       0.01394424 Eh      8.75 kcal/mol|
|  sn=10 | S(rot)=       0.01384476 Eh      8.69 kcal/mol|
|  sn=11 | S(rot)=       0.01375477 Eh      8.63 kcal/mol|
|  sn=12 | S(rot)=       0.01367261 Eh      8.58 kcal/mol|
 linear molecules ---------------------------------------
|  Dinfh | S(rot)=       0.01016470 Eh      6.38 kcal/mol|
|  Cinfv | S(rot)=       0.01081915 Eh      6.79 kcal/mol|
 --------------------------------------------------------


-------------------
GIBBS FREE ENERGY
-------------------

The Gibbs free energy is G = H - T*S

Total enthalpy                    ...  -1159.01211929 Eh 
Total entropy correction          ...     -0.06465586 Eh    -40.57 kcal/mol
-----------------------------------------------------------------------
Final Gibbs free energy         ...  -1159.07677515 Eh

For completeness - the Gibbs free energy minus the electronic energy
G-E(el)                           ...      0.23977740 Eh    150.46 kcal/mol


Maximum memory used throughout the entire PROP-calculation: 107.6 MB

--------------------------------
SUGGESTED CITATIONS FOR THIS RUN
--------------------------------

Below you find a list of papers that are relevant to this ORCA run
We neither can nor want to force you to cite these papers, but we appreciate if you do
You receive ORCA, which is the product of decades of hard work by many enthusiastic individuals, for free
The only thing we kindly ask in return is that you cite our papers,
We deeply appreciate it, if you show your appreciation for ORCA by not just citing the generic ORCA reference.

Please note that relegating all ORCA citations to the supporting information does *not* help us.
SI sections are not indexed - citations you put there will not count into any citation statistics
But we need these citations in order to attract the funding resources that allow us to do what we are doing

Therefore, if you are a happy ORCA user, please consider citing a few of the papers listed below in the main body of your paper

In addition to the list printed below, the program has created the file m1_01_Vitamin_B1-GFN2_012-B97-3C-TZ.bibtex that contains the list in bibtex format
You can import this file easily into all common literature databanks and citation aid programs


List of essential papers. We consider these as the minimum necessary citations

  1. Neese,F.
     Software update: the ORCA program system, version 5.0
     WIRES Comput. Molec. Sci., 2022 12(1)e1606
     doi.org/10.1002/wcms.1606

List of papers to cite with high priority. The work reported in these papers was absolutely
necessary for this run to complete.
Our perspective: the developers of density functionals and basis sets usually get cited in chemistry papers
Good! But without the algorithms to do something with them, the functionals or basis sets would not do anything.
Hence, in our opinion, the algorithm design and method developments papers are equally worthy of getting cited

  1. Neese,F.
     An improvement of the resolution of the identity approximation for the formation of the Coulomb matrix
     J. Comp. Chem., 2003 24(14)1740-1747
     doi.org/10.1002/jcc.10318
  2. Bykov,D.; Petrenko,T.; Izsak,R.; Kossmann,S.; Becker,U.; Valeev,E.; Neese,F.
     Efficient implementation of the analytic second derivatives of Hartree-Fock and hybrid DFT energies: a detailed analysis of different approximations
     Molec. Phys., 2015 113 1961-1977
     doi.org/10.1080/00268976.2015.1025114
  3. Neese,F.
     The SHARK Integral Generation and Digestion System
     J. Comp. Chem., 2022  1-16
     doi.org/10.1002/jcc.26942
  4. Grimme,S.; Antony,J.; Ehrlich,S.; Krieg,H.
     A consistent and accurate ab initio parametrization of density functional dispersion correction (DFT-D) for the 94 elements H-Pu
     J. Chem. Phys., 2010 132 154104
     doi.org/10.1063/1.3382344
  5. Grimme,S.; Ehrlich,S.; Goerigk,L.
     Effect of the damping function in dispersion corrected density functional theory
     J. Comput. Chem., 2011 32(7)1456-1465
     doi.org/10.1002/jcc.21759

List of suggested additional citations. These are papers that are important in the 'surrounding' of 
of this run, or papers that preceded the highly important papers. If you like your results we are grateful for a citation.

  1. Neese,F.
     The ORCA program system
     WIRES Comput. Molec. Sci., 2012 2(1)73-78
     doi.org/10.1002/wcms.81
  2. Neese,F.
     Software update: the ORCA program system, version 4.0
     WIRES Comput. Molec. Sci., 2018 8(1)1-6
     doi.org/10.1002/wcms.1327
  3. Neese,F.; Wennmohs,F.; Becker,U.; Riplinger,C.
     The ORCA quantum chemistry program package
     J. Chem. Phys., 2020 152 Art. No. L224108
     doi.org/10.1063/5.0004608

List of optional additional citations

  1. Neese,F.
     Approximate second-order SCF convergence for spin unrestricted wavefunctions
     Chem. Phys. Lett., 2000 325(1-3)93-98
     doi.org/10.1016/s0009-2614(00)00662-x

Timings for individual modules:

Sum of individual times          ...      639.345 sec (=  10.656 min)
Startup calculation              ...      114.879 sec (=   1.915 min)  18.0 %
SCF iterations                   ...      186.498 sec (=   3.108 min)  29.2 %
Property integrals               ...       83.399 sec (=   1.390 min)  13.0 %
SCF Response                     ...       83.898 sec (=   1.398 min)  13.1 %
Property calculations            ...       33.093 sec (=   0.552 min)   5.2 %
SCF Gradient evaluation          ...      137.297 sec (=   2.288 min)  21.5 %
Geometry relaxation              ...        0.282 sec (=   0.005 min)   0.0 %
                             ****ORCA TERMINATED NORMALLY****
TOTAL RUN TIME: 0 days 0 hours 10 minutes 46 seconds 279 msec
