
                                 *****************
                                 * O   R   C   A *
                                 *****************

                                            #,                                       
                                            ###                                      
                                            ####                                     
                                            #####                                    
                                            ######                                   
                                           ########,                                 
                                     ,,################,,,,,                         
                               ,,#################################,,                 
                          ,,##########################################,,             
                       ,#########################################, ''#####,          
                    ,#############################################,,   '####,        
                  ,##################################################,,,,####,       
                ,###########''''           ''''###############################       
              ,#####''   ,,,,##########,,,,          '''####'''          '####       
            ,##' ,,,,###########################,,,                        '##       
           ' ,,###''''                  '''############,,,                           
         ,,##''                                '''############,,,,        ,,,,,,###''
      ,#''                                            '''#######################'''  
     '                                                          ''''####''''         
             ,#######,   #######,   ,#######,      ##                                
            ,#'     '#,  ##    ##  ,#'     '#,    #''#        ,####,   ,####,        
            ##       ##  ##   ,#'  ##            #'  '#       #'       #'  '#        
            ##       ##  #######   ##           ,######,      #####,   #    #        
            '#,     ,#'  ##    ##  '#,     ,#' ,#      #,     #,   #   #,  ,#        
             '#######'   ##     ##  '#######'  #'      '#     '####' # '####'        



                #########################################################
                #                        -***-                          #
                #          Department of theory and spectroscopy        #
                #                                                       #
                #                      Frank Neese                      #
                #                                                       #
                #     Directorship, Architecture, Infrastructure        #
                #                    SHARK, DRIVERS                     #
                #        Core code/Algorithms in most modules           #
                #                                                       #
                #        Max Planck Institute fuer Kohlenforschung      #
                #                Kaiser Wilhelm Platz 1                 #
                #                 D-45470 Muelheim/Ruhr                 #
                #                      Germany                          #
                #                                                       #
                #                  All rights reserved                  #
                #                        -***-                          #
                #########################################################


                         Program Version 6.0.1  -  RELEASE   -


 With contributions from (in alphabetic order):
[Max-Planck-Institut fuer Kohlenforschung]                               
  Daniel Aravena         : Magnetic Suceptibility                        
  Michael Atanasov       : Ab Initio Ligand Field Theory (pilot matlab implementation)
  Alexander A. Auer      : GIAO ZORA, VPT2 properties, NMR spectrum      
  Ute Becker             : All parallelization in ORCA, NUMFREQ, NUMCALC 
  Giovanni Bistoni       : ED, misc. LED, open-shell LED, HFLD           
  Martin Brehm           : Molecular dynamics                            
  Dmytro Bykov           : pre 5.0 version of the SCF Hessian            
  Marcos Casanova-Páez   : Triplet and SCS-CIS(D). UHF-(DLPNO)-IP/EA/STEOM-CCSD. UHF-CVS-IP/STEOM-CCSD   
  Vijay G. Chilkuri      : MRCI spin determinant printing, contributions to CSF-ICE 
  Pauline Colinet        : FMM embedding                                 
  Dipayan Datta          : RHF DLPNO-CCSD density                        
  Achintya Kumar Dutta   : EOM-CC, STEOM-CC                              
  Nicolas Foglia         : Exact transition moments, OPA infrastructure, MCD improvements    
  Dmitry Ganyushin       : Spin-Orbit,Spin-Spin,Magnetic field MRCI      
  Miquel Garcia-Rates    : C-PCM and meta-GGA Hessian, CCSD/C-PCM, Gaussian charge scheme 
  Tiago L. C. Gouveia    : GS-ROHF, GS-ROCIS                             
  Yang Guo               : DLPNO-NEVPT2, F12-NEVPT2, CIM, IAO-localization        
  Andreas Hansen         : Spin unrestricted coupled pair/coupled cluster methods 
  Ingolf Harden          : AUTO-CI MPn and infrastructure                
  Benjamin Helmich-Paris : MC-RPA, TRAH-(SCF,CASSCF), AVAS, COSX integrals, SCF dyn. polar. 
  Lee Huntington         : MR-EOM, pCC                                   
  Robert Izsak           : Overlap fitted RIJCOSX, COSX-SCS-MP3, EOM     
  Riya Kayal             : Wick's Theorem for AUTO-CI, AUTO-CI UHF-CCSDT 
  Emily Kempfer          : AUTO-CI, RHF CISDT and CCSDT                  
  Christian Kollmar      : KDIIS, OOCD, Brueckner-CCSD(T), CCSD density, CASPT2, CASPT2-K, improved NEVPT2 
  Axel Koslowski         : Symmetry handling                             
  Simone Kossmann        : meta-GGA functionals, TD-DFT gradient, OOMP2, (MP2 Hessian; deprecated post 5.0) 
  Lucas Lang             : DCDCAS                                        
  Marvin Lechner         : AUTO-CI (C++ implementation), FIC-MRCC        
  Spencer Leger          : CASSCF response                               
  Dagmar Lenk            : GEPOL surface, SMD, ORCA-2-JSON               
  Dimitrios Liakos       : Extrapolation schemes; Compound Job, initial MDCI parallelization 
  Dimitrios Manganas     : Further ROCIS development; embedding schemes. LFT, Crystal Embedding 
  Dimitrios Pantazis     : SARC Basis sets                               
  Anastasios Papadopoulos: AUTO-CI, single reference methods and gradients 
  Taras Petrenko         : pre 6.0 DFT Hessian and TD-DFT gradient, (ASA, deprecated), ECA, 1-Electron XAS/XES, NRVS 
  Peter Pinski           : DLPNO-MP2, DLPNO-MP2 Gradient                 
  Christoph Reimann      : Effective Core Potentials                     
  Marius Retegan         : Local ZFS, SOC                                
  Christoph Riplinger    : Optimizer, TS searches, QM/MM, DLPNO-CCSD(T), (RO)-DLPNO pert. Triples 
  Michael Roemelt        : Original ROCIS implementation                 
  Masaaki Saitow         : Open-shell DLPNO-CCSD energy and density      
  Barbara Sandhoefer     : DKH picture change effects                    
  Kantharuban Sivalingam : CASSCF convergence/infrastructure, NEVPT2 and variants, FIC-MRCI 
  Bernardo de Souza      : ESD, SOC TD-DFT                               
  Georgi L. Stoychev     : AutoAux, RI-MP2 NMR, DLPNO-MP2 response, X2C  
  Van Anh Tran           : RI-MP2 g-tensors                              
  Willem Van den Heuvel  : Paramagnetic NMR                              
  Zikuan Wang            : NOTCH, Electric field optimization            
  Frank Wennmohs         : Technical directorship and infrastructure     
  Hang Xu                : AUTO-CI-Response properties                   
                                                                         
[FACCTs GmbH]                                                            
  Markus Bursch, Miquel Garcia-Rates, Christoph Riplinger, Bernardo de Souza, Georgi L. Stoychev 
                                                                 
  APM, Basis sets (HGBS, AHGBS, def-TZVP (Ac-Lr), def2-XVPD (La-Lu)), CI-OPT, improved COSX, DLPNO-Multilevel,           
  DOCKER, DRACO, updates on ESD, GOAT, IRC, LR-CPCM, MBIS, meta-GGA TD-DFT gradient, ML-optimized integration grids, 
  MM, NACMEs, nearIR, NEB, NEB-TS, NL-DFT gradient (VV10), 2- and 3-layer-ONIOM, interface openCOSMO-RS, QMMM,   
  Crystal-QMMM, SF, symmetry and pop. for TD-DFT, r2SCAN hybrids, SOLVATOR                                   
                                                                         
[Other institutions]                                                     
  V. Asgeirsson          : NEB                                           
  Christoph Bannwarth    : sTDA-DFT, sTD-DFT, PBEh-3c, B97-3c, D3        
  Sebastian Ehlert       : rSCAN, r2SCAN, r2SCAN-3c, D4, dhf basis sets  
  Marvin Friede          : D4 for Fr, Ra, Ac-Lr                          
  Lars Goerigk           : TD-DFT with DH, B97 family of functionals     
  Stefan Grimme          : VdW corrections, initial TS optimization, DFT functionals, gCP, sTDA/sTD-DF 
  Waldemar Hujo          : DFT-NL                                        
  H. Jonsson             : NEB                                           
  Holger Kruse           : gCP                                           
  Marcel Mueller         : wB97X-3c, vDZP basis set                      
  Hagen Neugebauer       : wr2SCAN                                       
  Tobias Risthaus        : range-separated hybrid DFT                    
  Lukas Wittmann         : regularized MP2, r2SCAN double-hybrids, wr2SCAN        
                                                                         
We gratefully acknowledge several colleagues who have allowed us to      
interface, adapt or use parts of their codes:                            
  Ed Valeev, F. Pavosevic, A. Kumar             : LibInt (2-el integral package), F12 methods 
  Garnet Chan, S. Sharma, J. Yang, R. Olivares  : DMRG                   
  Ulf Ekstrom                                   : XCFun DFT Library      
  Mihaly Kallay                                 : mrcc  (arbitrary order and MRCC methods)
  Frank Weinhold                                : gennbo (NPA and NBO analysis)           
  Simon Mueller                                 : openCOSMO-RS                            
  Christopher J. Cramer and Donald G. Truhlar   : smd solvation model                     
  S Lehtola, MJT Oliveira, MAL Marques          : LibXC Library                           
  Liviu Ungur et al                             : ANISO software                          


 Your calculation uses the libint2 library for the computation of 2-el integrals
 For citations please refer to: http://libint.valeyev.net

 Your ORCA version has been built with support for libXC version: 6.2.2
 For citations please refer to: https://libxc.gitlab.io

 This ORCA versions uses:
   CBLAS   interface :  Fast vector & matrix operations
   LAPACKE interface :  Fast linear algebra routines
   SCALAPACK package :  Parallel linear algebra routines
   Shared memory     :  Shared parallel matrices
   BLAS/LAPACK       :  OpenBLAS 0.3.27  USE64BITINT DYNAMIC_ARCH NO_AFFINITY Zen SINGLE_THREADED
        Core in use  :  Zen
   Copyright (c) 2011-2014, The OpenBLAS Project


NOTE: MaxCore=6000 MB was set to SCF,MP2,MDCI,CIPSI,MRCI and CIS
      => If you want to overwrite this, your respective input block should be placed after the MaxCore statement
Your calculation utilizes the atom-pairwise dispersion correction
with the Becke-Johnson damping scheme (D3BJ)


Your calculation employs the composite approach B97-3c by Grimme and coworkers.
For the correct reference, please check the publication list of the Grimme group:
http://www.thch.uni-bonn.de/tc/index.php?section=publikationen&subsection=grimme#2017
   

XCFun DFT library Copyright 2009-2010 Ulf Ekstrom and contributors.
See http://admol.org/xcfun for more information.
This is free software; see the source code for copying conditions.
There is ABSOLUTELY NO WARRANTY; not even for MERCHANTABILITY or FITNESS FOR A PARTICULAR PURPOSE.
For details see the documentation.
Scientific users of this library should cite U. Ekstrom, L. Visscher, R. Bast, A. J. Thorvaldsen and K. Ruud;
J.Chem.Theor.Comp. 2010, DOI: 10.1021/ct100117s
XCFun Version 0.99 

================================================================================

----- Orbital basis set information -----
Your calculation utilizes the basis: def2-mTZVP
----- AuxJ basis set information -----
Your calculation utilizes the basis: def2-mTZVP/J
================================================================================
                                        WARNINGS
                       Please study these warnings very carefully!
================================================================================


WARNING: Geometry Optimization
  ===> : Switching off AutoStart
         For restart on a previous wavefunction, please use MOREAD

================================================================================
                                       INPUT FILE
================================================================================
NAME = m1_00_Vitamin_A-GFN1_000-B97-3C-TZ.inp
|  1> %pal nprocs 16 end
|  2> %MaxCore 6000
|  3> # put your comments here
|  4> ! B97-3C  OPT  FREQ DEFGRID3 NOTRAH
|  5> %scf MaxIter 800 end
|  6> %output
|  7> Print [P_Hirshfeld] 1
|  8> end
|  9> %geom
| 10> MaxIter 3000
| 11>  TolE 1e-6 #TolE 5e-6 Energy change (a.u.)
| 12>  TolRMSG 3e-5 #TolRMSG 1e-4 RMS gradient (a.u.)
| 13>  TolMaxG 1e-4 #TolMaxG 3e-3 Max. element of gradient (a.u.)
| 14>  TolRMSD 2e-3 #TolRMSD 2e-3 RMS displacement (a.u.)
| 15>  TolMaxD 4e-3 #TolMaxD 4e-3 Max. displacement (a.u.)
| 16> end
| 17> * xyz 0 1
| 18>  O 8.37214476693906 -0.01419346776183 1.08590037599905
| 19>  C -4.06500271759293 2.84151887359949 -1.86053050362985
| 20>  C -5.33937266013515 2.21747097449806 -1.26637406099914
| 21>  C -5.84281373889187 3.00594988702997 -0.06108436125890
| 22>  C -3.05856762269770 3.17630294718310 -0.76069878588232
| 23>  C -4.79034489113889 2.97359791563151 1.04411793867124
| 24>  C -3.39928675671398 3.26497168723450 0.53406762879832
| 25>  C -4.42004678908979 4.12477516573604 -2.63494258401976
| 26>  C -3.44979722430815 1.82178170945823 -2.83571992725251
| 27>  C -1.69685783677136 3.43099411215475 -1.24421022309235
| 28>  C -2.43780657379988 3.68232502988027 1.61830105028696
| 29>  C -0.58433880566517 2.89170222602563 -0.70883569100668
| 30>  C 0.76780497184730 3.10608892270153 -1.17802994108943
| 31>  C 0.96769519933943 4.05653232573198 -2.32809427676846
| 32>  C 1.78395317523005 2.44360843300211 -0.56442638407170
| 33>  C 3.18099229812540 2.51197653610655 -0.87627943869498
| 34>  C 4.10710325986902 1.80134203465264 -0.19191392779806
| 35>  C 5.53494708855983 1.80971587183640 -0.43846808590147
| 36>  C 6.05473597817178 2.67728081711664 -1.55741866485357
| 37>  C 6.34484611524644 1.05911403063783 0.32925519809868
| 38>  C 7.84365025057590 0.95618029601689 0.20957689593890
| 39>  H -5.12457264630735 1.18965888048789 -0.95428850983907
| 40>  H -6.11518825222418 2.17443170718171 -2.03706381101493
| 41>  H -6.77586097164146 2.56853480527476 0.30611941130239
| 42>  H -6.05062978834841 4.04192708296924 -0.34577775034429
| 43>  H -4.78379934941075 1.98163432751503 1.51393365167946
| 44>  H -5.05428052330056 3.69365520402709 1.82578744921601
| 45>  H -4.79918644620031 4.89018351114052 -1.95805613495059
| 46>  H -3.54209295854175 4.52330915726117 -3.14322524488607
| 47>  H -5.18254845544319 3.91161054814172 -3.38527823808924
| 48>  H -4.18938935440070 1.52536801466906 -3.58065957038675
| 49>  H -2.58958541462501 2.24511049903901 -3.35394949399303
| 50>  H -3.12360504437532 0.93294588104058 -2.29480342220495
| 51>  H -1.62175080657835 4.05657892078220 -2.12931401833349
| 52>  H -2.93872475035263 4.34234707504021 2.32933706721836
| 53>  H -1.57444029527146 4.20642424104810 1.20859741296458
| 54>  H -2.08171583141166 2.80971704463989 2.17023418510302
| 55>  H -0.68256824565047 2.20806448371188 0.13076223969739
| 56>  H 2.02018751599337 4.18847301243628 -2.57144854026259
| 57>  H 0.45673554502373 3.68328598022387 -3.21829875207687
| 58>  H 0.54911471984848 5.03521711937572 -2.08535305187063
| 59>  H 1.52468301907928 1.78040156920294 0.25903967303542
| 60>  H 3.49138427074406 3.15854780905981 -1.69047063263530
| 61>  H 3.77598164947909 1.15908226032024 0.62149855044564
| 62>  H 5.59467977381589 2.39051781572814 -2.50491146391636
| 63>  H 7.13529760730620 2.59332503203631 -1.66261993815161
| 64>  H 5.81165775073492 3.72424107906621 -1.36673761537778
| 65>  H 5.91916519346581 0.46122698998708 1.13011430853653
| 66>  H 8.31460171584083 1.90939593315872 0.48683715099278
| 67>  H 8.13471558249728 0.73259880784118 -0.83267857217772
| 68>  H 7.96231830314332 -0.87148912088376 0.91633742885016
| 69> *
| 70> 
| 71> 
| 72> 
| 73> 
| 74>                          ****END OF INPUT****
================================================================================

                       *****************************
                       * Geometry Optimization Run *
                       *****************************

Geometry optimization settings:
Update method            Update   .... BFGS
Choice of coordinates    CoordSys .... (2022) Redundant Internals
Initial Hessian          InHess   .... Almloef's Model
Max. no of cycles        MaxIter  .... 3000

Convergence Tolerances:
Energy Change            TolE     ....  1.0000e-06 Eh
Max. Gradient            TolMAXG  ....  1.0000e-04 Eh/bohr
RMS Gradient             TolRMSG  ....  3.0000e-05 Eh/bohr
Max. Displacement        TolMAXD  ....  4.0000e-03 bohr
RMS Displacement         TolRMSD  ....  2.0000e-03 bohr
Strict Convergence                .... False

------------------------------------------------------------------------------
                        ORCA OPTIMIZATION COORDINATE SETUP
------------------------------------------------------------------------------

The optimization will be done in redundant internal coordinates (2022)
Making redundant internal coordinates   ...  (2022 redundants) done
Evaluating the initial hessian          ...  (Almloef) done
Evaluating the coordinates              ...  done
Calculating the B-matrix                .... done
Calculating the G-matrix                .... done
Diagonalizing the G-matrix              .... done
Small eigenvalue found = 9.019e-04
Small eigenvalue found = 3.322e-03
Small eigenvalue found = 5.433e-03
Small eigenvalue found = 7.414e-03
Small eigenvalue found = 1.215e-02
Small eigenvalue found = 1.711e-02
Small eigenvalue found = 2.070e-02
Small eigenvalue found = 2.763e-02
The first mode is                       ....   94
The number of degrees of freedom        ....  147

    -----------------------------------------------------------------
                    Redundant Internal Coordinates


    -----------------------------------------------------------------
         Definition                    Initial Value    Approx d2E/dq
    -----------------------------------------------------------------
      1. B(C   2,C   1)                  1.5383         0.362309   
      2. B(C   3,C   2)                  1.5257         0.379470   
      3. B(C   4,C   1)                  1.5279         0.376403   
      4. B(C   5,C   3)                  1.5265         0.378406   
      5. B(C   6,C   5)                  1.5100         0.402059   
      6. B(C   6,C   4)                  1.3418         0.745884   
      7. B(C   7,C   1)                  1.5403         0.359706   
      8. B(C   8,C   1)                  1.5393         0.361074   
      9. B(C   9,C   4)                  1.4673         0.470378   
     10. B(C  10,C   6)                  1.5080         0.404958   
     11. B(C  11,C   9)                  1.3473         0.730966   
     12. B(C  12,C  11)                  1.4472         0.506377   
     13. B(C  13,C  12)                  1.5053         0.409049   
     14. B(C  14,C  12)                  1.3594         0.699152   
     15. B(C  15,C  14)                  1.4331         0.533394   
     16. B(C  16,C  15)                  1.3532         0.715346   
     17. B(C  17,C  16)                  1.4490         0.503049   
     18. B(C  18,C  17)                  1.5083         0.404608   
     19. B(C  19,C  17)                  1.3449         0.737400   
     20. B(C  20,C  19)                  1.5071         0.406371   
     21. B(C  20,O   0)                  1.4103         0.519432   
     22. B(H  21,C   2)                  1.0954         0.353007   
     23. B(H  22,C   2)                  1.0944         0.354330   
     24. B(H  23,C   3)                  1.0940         0.354900   
     25. B(H  24,C   3)                  1.0943         0.354460   
     26. B(H  25,C   5)                  1.0976         0.350164   
     27. B(H  26,C   5)                  1.0951         0.353471   
     28. B(H  27,C   7)                  1.0898         0.360299   
     29. B(H  28,C   7)                  1.0899         0.360171   
     30. B(H  29,C   7)                  1.0908         0.359039   
     31. B(H  30,C   8)                  1.0908         0.359075   
     32. B(H  31,C   8)                  1.0898         0.360322   
     33. B(H  32,C   8)                  1.0904         0.359542   
     34. B(H  33,C   9)                  1.0865         0.364807   
     35. B(H  34,C  10)                  1.0918         0.357671   
     36. B(H  35,C  10)                  1.0899         0.360198   
     37. B(H  36,C  10)                  1.0922         0.357217   
     38. B(H  37,C  11)                  1.0872         0.363866   
     39. B(H  38,C  13)                  1.0883         0.362373   
     40. B(H  39,C  13)                  1.0922         0.357228   
     41. B(H  40,C  13)                  1.0918         0.357769   
     42. B(H  41,C  14)                  1.0887         0.361889   
     43. B(H  42,C  15)                  1.0850         0.366726   
     44. B(H  43,C  16)                  1.0880         0.362734   
     45. B(H  44,C  18)                  1.0916         0.357967   
     46. B(H  45,C  18)                  1.0889         0.361542   
     47. B(H  46,C  18)                  1.0916         0.358001   
     48. B(H  47,C  19)                  1.0863         0.365028   
     49. B(H  48,C  20)                  1.0988         0.348687   
     50. B(H  49,C  20)                  1.1050         0.340806   
     51. B(H  50,O   0)                  0.9652         0.510065   
     52. A(C  20,O   0,H  50)          110.0512         0.357906   
     53. A(C   2,C   1,C   7)          109.9502         0.359134   
     54. A(C   2,C   1,C   4)          110.8872         0.361922   
     55. A(C   7,C   1,C   8)          108.9978         0.358925   
     56. A(C   4,C   1,C   7)          109.3406         0.361477   
     57. A(C   4,C   1,C   8)          109.7505         0.361711   
     58. A(C   2,C   1,C   8)          107.8811         0.359366   
     59. A(C   1,C   2,H  21)          109.1611         0.321644   
     60. A(H  21,C   2,H  22)          107.6222         0.289199   
     61. A(C   1,C   2,H  22)          109.3428         0.321841   
     62. A(C   1,C   2,C   3)          111.6428         0.362424   
     63. A(C   3,C   2,H  22)          110.0427         0.324292   
     64. A(C   3,C   2,H  21)          108.9372         0.324093   
     65. A(C   2,C   3,C   5)          109.4811         0.365127   
     66. A(C   5,C   3,H  23)          109.6669         0.324228   
     67. A(H  23,C   3,H  24)          107.6913         0.289458   
     68. A(C   5,C   3,H  24)          109.8378         0.324162   
     69. A(C   2,C   3,H  24)          110.2665         0.324312   
     70. A(C   2,C   3,H  23)          109.8745         0.324378   
     71. A(C   1,C   4,C   9)          114.3385         0.378533   
     72. A(C   6,C   4,C   9)          122.8317         0.427006   
     73. A(C   1,C   4,C   6)          122.8068         0.410378   
     74. A(H  25,C   5,H  26)          106.8675         0.288724   
     75. A(C   3,C   5,H  25)          109.4610         0.323514   
     76. A(C   6,C   5,H  26)          109.6498         0.327261   
     77. A(C   3,C   5,H  26)          109.6757         0.324014   
     78. A(C   6,C   5,H  25)          108.2689         0.326755   
     79. A(C   3,C   5,C   6)          112.7375         0.368765   
     80. A(C   4,C   6,C   5)          123.1700         0.415211   
     81. A(C   5,C   6,C  10)          113.4468         0.373092   
     82. A(C   4,C   6,C  10)          123.3785         0.415742   
     83. A(H  28,C   7,H  29)          108.2848         0.290714   
     84. A(H  27,C   7,H  29)          108.7411         0.290730   
     85. A(H  27,C   7,H  28)          108.2437         0.290874   
     86. A(C   1,C   7,H  28)          110.6964         0.322323   
     87. A(C   1,C   7,H  27)          110.6731         0.322342   
     88. A(C   1,C   7,H  29)          110.1306         0.322157   
     89. A(H  30,C   8,H  32)          108.6693         0.290638   
     90. A(C   1,C   8,H  32)          110.1997         0.322431   
     91. A(H  30,C   8,H  31)          108.4206         0.290737   
     92. A(C   1,C   8,H  31)          111.0629         0.322546   
     93. A(C   1,C   8,H  30)          109.9808         0.322362   
     94. A(H  31,C   8,H  32)          108.4449         0.290797   
     95. A(C  11,C   9,H  33)          119.8100         0.363736   
     96. A(C   4,C   9,H  33)          115.6301         0.337647   
     97. A(C   4,C   9,C  11)          124.4657         0.425464   
     98. A(H  34,C  10,H  36)          107.6652         0.290164   
     99. A(C   6,C  10,H  36)          110.4925         0.328219   
    100. A(H  34,C  10,H  35)          108.5138         0.290543   
    101. A(C   6,C  10,H  35)          111.5835         0.328669   
    102. A(C   6,C  10,H  34)          110.0599         0.328288   
    103. A(H  35,C  10,H  36)          108.4140         0.290485   
    104. A(C   9,C  11,C  12)          125.6889         0.431127   
    105. A(C  12,C  11,H  37)          115.3376         0.341684   
    106. A(C   9,C  11,H  37)          118.9458         0.363575   
    107. A(C  13,C  12,C  14)          123.5936         0.411725   
    108. A(C  11,C  12,C  14)          118.6768         0.427699   
    109. A(C  11,C  12,C  13)          117.7296         0.389001   
    110. A(H  39,C  13,H  40)          107.9509         0.290178   
    111. A(H  38,C  13,H  40)          108.1692         0.290830   
    112. A(C  12,C  13,H  40)          110.1951         0.328848   
    113. A(H  38,C  13,H  39)          108.1568         0.290761   
    114. A(C  12,C  13,H  39)          110.1708         0.328765   
    115. A(C  12,C  13,H  38)          112.0745         0.329543   
    116. A(C  12,C  14,C  15)          127.3901         0.431707   
    117. A(C  15,C  14,H  41)          115.2039         0.344359   
    118. A(C  12,C  14,H  41)          117.4059         0.360489   
    119. A(C  14,C  15,C  16)          122.1469         0.433488   
    120. A(C  16,C  15,H  42)          119.7799         0.362721   
    121. A(C  14,C  15,H  42)          118.0732         0.345128   
    122. A(C  15,C  16,C  17)          125.8258         0.428951   
    123. A(C  17,C  16,H  43)          115.5001         0.341129   
    124. A(C  15,C  16,H  43)          118.6740         0.362043   
    125. A(C  18,C  17,C  19)          122.4788         0.414833   
    126. A(C  16,C  17,C  19)          119.5415         0.431295   
    127. A(C  16,C  17,C  18)          117.9792         0.387815   
    128. A(H  45,C  18,H  46)          108.1677         0.290755   
    129. A(H  44,C  18,H  46)          108.0427         0.290302   
    130. A(C  17,C  18,H  46)          110.2032         0.328291   
    131. A(H  44,C  18,H  45)          108.3067         0.290751   
    132. A(C  17,C  18,H  45)          111.6728         0.328825   
    133. A(C  17,C  18,H  44)          110.3395         0.328286   
    134. A(C  17,C  19,C  20)          126.2762         0.415154   
    135. A(C  20,C  19,H  47)          114.2463         0.329583   
    136. A(C  17,C  19,H  47)          119.4750         0.364319   
    137. A(O   0,C  20,C  19)          111.7363         0.387807   
    138. A(H  48,C  20,H  49)          107.4963         0.286891   
    139. A(C  19,C  20,H  49)          110.5290         0.325873   
    140. A(O   0,C  20,H  49)          110.3755         0.337345   
    141. A(C  19,C  20,H  48)          110.3021         0.327102   
    142. A(O   0,C  20,H  48)          106.2307         0.338634   
    143. D(C   3,C   2,C   1,C   7)    -74.3788         0.010522   
    144. D(C   3,C   2,C   1,C   8)    166.8705         0.010522   
    145. D(H  21,C   2,C   1,C   8)     46.3732         0.010522   
    146. D(C   3,C   2,C   1,C   4)     46.6606         0.010522   
    147. D(H  21,C   2,C   1,C   7)    165.1239         0.010522   
    148. D(H  21,C   2,C   1,C   4)    -73.8367         0.010522   
    149. D(C   5,C   3,C   2,H  22)    175.9901         0.011478   
    150. D(H  23,C   3,C   2,H  22)     55.4944         0.011478   
    151. D(C   5,C   3,C   2,C   1)    -62.4043         0.011478   
    152. D(H  23,C   3,C   2,C   1)    177.1000         0.011478   
    153. D(H  23,C   3,C   2,H  21)    -62.2718         0.011478   
    154. D(C   5,C   3,C   2,H  21)     58.2239         0.011478   
    155. D(C   6,C   4,C   1,C   8)   -136.4694         0.010585   
    156. D(C   6,C   4,C   1,C   7)    104.0198         0.010585   
    157. D(C   6,C   4,C   1,C   2)    -17.3785         0.010585   
    158. D(C   9,C   4,C   1,C   2)    164.3172         0.010585   
    159. D(C   9,C   4,C   1,C   7)    -74.2845         0.010585   
    160. D(H  25,C   5,C   3,C   2)    -74.2029         0.011417   
    161. D(H  25,C   5,C   3,H  23)     46.4192         0.011417   
    162. D(C   6,C   5,C   3,H  24)    -74.8473         0.011417   
    163. D(C   6,C   5,C   3,C   2)     46.3657         0.011417   
    164. D(H  25,C   5,C   3,H  24)    164.5841         0.011417   
    165. D(C   6,C   5,C   3,H  23)    166.9878         0.011417   
    166. D(C   4,C   6,C   5,H  26)   -140.6377         0.011991   
    167. D(C   4,C   6,C   5,H  25)    103.1098         0.011991   
    168. D(C   4,C   6,C   5,C   3)    -18.1392         0.011991   
    169. D(C  10,C   6,C   4,C   9)      2.3053         0.039634   
    170. D(C  10,C   6,C   4,C   1)   -175.8560         0.039634   
    171. D(C   5,C   6,C   4,C   9)   -178.5420         0.039634   
    172. D(C  10,C   6,C   5,C   3)    161.0897         0.011991   
    173. D(C   5,C   6,C   4,C   1)      3.2968         0.039634   
    174. D(C  10,C   6,C   5,H  25)    -77.6614         0.011991   
    175. D(H  28,C   7,C   1,C   8)    -56.3444         0.010382   
    176. D(H  28,C   7,C   1,C   4)     63.6297         0.010382   
    177. D(H  28,C   7,C   1,C   2)   -174.4067         0.010382   
    178. D(H  27,C   7,C   1,C   8)   -176.3603         0.010382   
    179. D(H  27,C   7,C   1,C   4)    -56.3862         0.010382   
    180. D(H  27,C   7,C   1,C   2)     65.5773         0.010382   
    181. D(H  31,C   8,C   1,C   7)     55.6598         0.010455   
    182. D(H  31,C   8,C   1,C   4)    -64.0606         0.010455   
    183. D(H  31,C   8,C   1,C   2)    175.0168         0.010455   
    184. D(H  30,C   8,C   1,C   7)    -64.3619         0.010455   
    185. D(H  30,C   8,C   1,C   4)    175.9177         0.010455   
    186. D(H  30,C   8,C   1,C   2)     54.9951         0.010455   
    187. D(H  33,C   9,C   4,C   6)   -134.5106         0.015066   
    188. D(H  33,C   9,C   4,C   1)     43.7932         0.015066   
    189. D(C  11,C   9,C   4,C   6)     49.0393         0.015066   
    190. D(C  11,C   9,C   4,C   1)   -132.6568         0.015066   
    191. D(H  36,C  10,C   6,C   4)   -101.7617         0.012158   
    192. D(H  35,C  10,C   6,C   5)   -160.2918         0.012158   
    193. D(H  35,C  10,C   6,C   4)     18.9352         0.012158   
    194. D(H  34,C  10,C   6,C   5)    -39.7622         0.012158   
    195. D(H  34,C  10,C   6,C   4)    139.4648         0.012158   
    196. D(H  37,C  11,C   9,H  33)   -175.4285         0.037920   
    197. D(H  37,C  11,C   9,C   4)      0.8825         0.037920   
    198. D(C  12,C  11,C   9,H  33)      2.5619         0.037920   
    199. D(C  12,C  11,C   9,C   4)    178.8729         0.037920   
    200. D(C  14,C  12,C  11,H  37)      0.8190         0.017471   
    201. D(C  14,C  12,C  11,C   9)   -177.2353         0.017471   
    202. D(C  13,C  12,C  11,H  37)   -179.2604         0.017471   
    203. D(C  13,C  12,C  11,C   9)      2.6853         0.017471   
    204. D(H  38,C  13,C  12,C  14)     -3.0411         0.012395   
    205. D(H  38,C  13,C  12,C  11)    177.0425         0.012395   
    206. D(H  40,C  13,C  12,C  11)     56.5316         0.012395   
    207. D(H  39,C  13,C  12,C  14)    117.4375         0.012395   
    208. D(H  39,C  13,C  12,C  11)    -62.4789         0.012395   
    209. D(H  41,C  14,C  12,C  13)    179.9437         0.034420   
    210. D(H  41,C  14,C  12,C  11)     -0.1407         0.034420   
    211. D(C  15,C  14,C  12,C  13)     -0.1343         0.034420   
    212. D(C  15,C  14,C  12,C  11)    179.7814         0.034420   
    213. D(H  42,C  15,C  14,H  41)    179.9293         0.019426   
    214. D(H  42,C  15,C  14,C  12)      0.0057         0.019426   
    215. D(C  16,C  15,C  14,H  41)     -0.0456         0.019426   
    216. D(C  16,C  15,C  14,C  12)   -179.9691         0.019426   
    217. D(H  43,C  16,C  15,H  42)    179.9667         0.036176   
    218. D(H  43,C  16,C  15,C  14)     -0.0589         0.036176   
    219. D(C  17,C  16,C  15,H  42)      0.0155         0.036176   
    220. D(C  17,C  16,C  15,C  14)    179.9899         0.036176   
    221. D(C  19,C  17,C  16,H  43)     -0.4870         0.017239   
    222. D(C  19,C  17,C  16,C  15)    179.4655         0.017239   
    223. D(C  18,C  17,C  16,H  43)    179.7741         0.017239   
    224. D(C  18,C  17,C  16,C  15)     -0.2734         0.017239   
    225. D(H  46,C  18,C  17,C  16)     60.6967         0.012137   
    226. D(H  45,C  18,C  17,C  19)      1.2147         0.012137   
    227. D(H  45,C  18,C  17,C  16)   -179.0546         0.012137   
    228. D(H  44,C  18,C  17,C  19)    121.7312         0.012137   
    229. D(H  44,C  18,C  17,C  16)    -58.5381         0.012137   
    230. D(H  47,C  19,C  17,C  18)    179.2650         0.038654   
    231. D(H  47,C  19,C  17,C  16)     -0.4617         0.038654   
    232. D(C  20,C  19,C  17,C  18)     -0.1266         0.038654   
    233. D(C  20,C  19,C  17,C  16)   -179.8533         0.038654   
    234. D(H  49,C  20,C  19,C  17)    -51.0733         0.012239   
    235. D(H  48,C  20,C  19,H  47)   -111.7529         0.012239   
    236. D(H  48,C  20,C  19,C  17)     67.6663         0.012239   
    237. D(O   0,C  20,C  19,H  47)      6.1727         0.012239   
    238. D(O   0,C  20,C  19,C  17)   -174.4081         0.012239   
    239. D(H  49,C  20,O   0,H  50)    -66.3722         0.021389   
    240. D(H  48,C  20,O   0,H  50)    177.3871         0.021389   
    241. D(C  19,C  20,O   0,H  50)     57.0495         0.021389   
    -----------------------------------------------------------------

Number of atoms                         .... 51
Number of degrees of freedom            .... 241


         *************************************************************
         *                GEOMETRY OPTIMIZATION CYCLE   1            *
         *************************************************************
---------------------------------
CARTESIAN COORDINATES (ANGSTROEM)
---------------------------------
  O      8.372145   -0.014193    1.085900
  C     -4.065003    2.841519   -1.860531
  C     -5.339373    2.217471   -1.266374
  C     -5.842814    3.005950   -0.061084
  C     -3.058568    3.176303   -0.760699
  C     -4.790345    2.973598    1.044118
  C     -3.399287    3.264972    0.534068
  C     -4.420047    4.124775   -2.634943
  C     -3.449797    1.821782   -2.835720
  C     -1.696858    3.430994   -1.244210
  C     -2.437807    3.682325    1.618301
  C     -0.584339    2.891702   -0.708836
  C      0.767805    3.106089   -1.178030
  C      0.967695    4.056532   -2.328094
  C      1.783953    2.443608   -0.564426
  C      3.180992    2.511977   -0.876279
  C      4.107103    1.801342   -0.191914
  C      5.534947    1.809716   -0.438468
  C      6.054736    2.677281   -1.557419
  C      6.344846    1.059114    0.329255
  C      7.843650    0.956180    0.209577
  H     -5.124573    1.189659   -0.954289
  H     -6.115188    2.174432   -2.037064
  H     -6.775861    2.568535    0.306119
  H     -6.050630    4.041927   -0.345778
  H     -4.783799    1.981634    1.513934
  H     -5.054281    3.693655    1.825787
  H     -4.799186    4.890184   -1.958056
  H     -3.542093    4.523309   -3.143225
  H     -5.182548    3.911611   -3.385278
  H     -4.189389    1.525368   -3.580660
  H     -2.589585    2.245110   -3.353949
  H     -3.123605    0.932946   -2.294803
  H     -1.621751    4.056579   -2.129314
  H     -2.938725    4.342347    2.329337
  H     -1.574440    4.206424    1.208597
  H     -2.081716    2.809717    2.170234
  H     -0.682568    2.208064    0.130762
  H      2.020188    4.188473   -2.571449
  H      0.456736    3.683286   -3.218299
  H      0.549115    5.035217   -2.085353
  H      1.524683    1.780402    0.259040
  H      3.491384    3.158548   -1.690471
  H      3.775982    1.159082    0.621499
  H      5.594680    2.390518   -2.504911
  H      7.135298    2.593325   -1.662620
  H      5.811658    3.724241   -1.366738
  H      5.919165    0.461227    1.130114
  H      8.314602    1.909396    0.486837
  H      8.134716    0.732599   -0.832679
  H      7.962318   -0.871489    0.916337

----------------------------
CARTESIAN COORDINATES (A.U.)
----------------------------
  NO LB      ZA    FRAG     MASS         X           Y           Z
   0 O     8.0000    0    15.999   15.821061   -0.026822    2.052054
   1 C     6.0000    0    12.011   -7.681742    5.369692   -3.515893
   2 C     6.0000    0    12.011  -10.089952    4.190413   -2.393100
   3 C     6.0000    0    12.011  -11.041318    5.680422   -0.115433
   4 C     6.0000    0    12.011   -5.779855    6.002343   -1.437512
   5 C     6.0000    0    12.011   -9.052440    5.619286    1.973097
   6 C     6.0000    0    12.011   -6.423721    6.169902    1.009242
   7 C     6.0000    0    12.011   -8.352678    7.794695   -4.979320
   8 C     6.0000    0    12.011   -6.519172    3.442669   -5.358734
   9 C     6.0000    0    12.011   -3.206597    6.483639   -2.351217
  10 C     6.0000    0    12.011   -4.606787    6.958586    3.058146
  11 C     6.0000    0    12.011   -1.104240    5.464525   -1.339505
  12 C     6.0000    0    12.011    1.450941    5.869657   -2.226154
  13 C     6.0000    0    12.011    1.828679    7.665735   -4.399461
  14 C     6.0000    0    12.011    3.371183    4.617751   -1.066611
  15 C     6.0000    0    12.011    6.011204    4.746948   -1.655928
  16 C     6.0000    0    12.011    7.761300    3.404043   -0.362665
  17 C     6.0000    0    12.011   10.459534    3.419867   -0.828585
  18 C     6.0000    0    12.011   11.441793    5.059328   -2.943095
  19 C     6.0000    0    12.011   11.990022    2.001435    0.622202
  20 C     6.0000    0    12.011   14.822351    1.806919    0.396043
  21 H     1.0000    0     1.008   -9.684039    2.248129   -1.803344
  22 H     1.0000    0     1.008  -11.556031    4.109080   -3.849493
  23 H     1.0000    0     1.008  -12.804522    4.853827    0.578482
  24 H     1.0000    0     1.008  -11.434033    7.638135   -0.653425
  25 H     1.0000    0     1.008   -9.040071    3.744746    2.860920
  26 H     1.0000    0     1.008   -9.551206    6.979997    3.450238
  27 H     1.0000    0     1.008   -9.069148    9.241108   -3.700190
  28 H     1.0000    0     1.008   -6.693586    8.547816   -5.939835
  29 H     1.0000    0     1.008   -9.793597    7.391873   -6.397249
  30 H     1.0000    0     1.008   -7.916799    2.882528   -6.766466
  31 H     1.0000    0     1.008   -4.893607    4.242644   -6.338046
  32 H     1.0000    0     1.008   -5.902758    1.763012   -4.336550
  33 H     1.0000    0     1.008   -3.064665    7.665823   -4.023820
  34 H     1.0000    0     1.008   -5.553385    8.205847    4.401809
  35 H     1.0000    0     1.008   -2.975261    7.948990    2.283918
  36 H     1.0000    0     1.008   -3.933873    5.309596    4.101148
  37 H     1.0000    0     1.008   -1.289867    4.172637    0.247105
  38 H     1.0000    0     1.008    3.817601    7.915067   -4.859334
  39 H     1.0000    0     1.008    0.863105    6.960402   -6.081703
  40 H     1.0000    0     1.008    1.037676    9.515181   -3.940746
  41 H     1.0000    0     1.008    2.881233    3.364471    0.489514
  42 H     1.0000    0     1.008    6.597760    5.968790   -3.194527
  43 H     1.0000    0     1.008    7.135571    2.190348    1.174462
  44 H     1.0000    0     1.008   10.572413    4.517424   -4.733597
  45 H     1.0000    0     1.008   13.483758    4.900674   -3.141896
  46 H     1.0000    0     1.008   10.982442    7.037796   -2.582760
  47 H     1.0000    0     1.008   11.185601    0.871593    2.135607
  48 H     1.0000    0     1.008   15.712320    3.608235    0.919989
  49 H     1.0000    0     1.008   15.372385    1.384411   -1.573534
  50 H     1.0000    0     1.008   15.046601   -1.646876    1.731627

--------------------------------
INTERNAL COORDINATES (ANGSTROEM)
--------------------------------
 O      0   0   0     0.000000000000     0.00000000     0.00000000
 C      1   0   0    13.096533337377     0.00000000     0.00000000
 C      2   1   0     1.538335597049   127.68718014     0.00000000
 C      3   2   1     1.525737584117   111.64275965    91.77895803
 C      2   1   3     1.527946917771    42.29533195    79.65000051
 C      4   3   2     1.526502358110   109.48105034   297.59569267
 C      5   2   1     1.341779319535   122.80684096   219.05456234
 C      2   1   5     1.540297722607   120.90879209    85.15429564
 C      2   1   5     1.539264790361    67.57497706   184.55750385
 C      5   2   1     1.467277901597   114.33854655    40.75026905
 C      7   5   2     1.508041798833   123.37847020   184.14401820
 C     10   5   2     1.347278821412   124.46572575   227.34315590
 C     12  10   5     1.447203404877   125.68890095   178.87290819
 C     13  12  10     1.505306195301   117.72956796     2.68531612
 C     13  12  10     1.359392105191   118.67677419   182.76471356
 C     15  13  12     1.433054373044   127.39014112   179.78135905
 C     16  15  13     1.353158919205   122.14693559   180.03087974
 C     17  16  15     1.448998644981   125.82581985   179.98993099
 C     18  17  16     1.508277103910   117.97915896   359.72663866
 C     18  17  16     1.344893526728   119.54151402   179.46553134
 C      1   2   3     1.410274631751    49.78097474   183.00049794
 H      3   2   1     1.095415052743   109.16106653   331.28166774
 H      3   2   1     1.094397049630   109.34280320   213.78844127
 H      4   3   2     1.093959644078   109.87454690   177.09998575
 H      4   3   2     1.094297302705   110.26648346    58.54906712
 H      6   4   3     1.097616239154   109.46098441   285.79710185
 H      6   4   3     1.095057870713   109.67569543   168.84971403
 H      8   2   1     1.089849567483   110.67306221   258.32580019
 H      8   2   1     1.089946574063   110.69637684    18.34174622
 H      8   2   1     1.090803162424   110.13057937   138.05690494
 H      9   2   1     1.090776177438   109.98077700   179.17466540
 H      9   2   1     1.089831870267   111.06288080   299.19638463
 H      9   2   1     1.090422456464   110.19973495    59.39252094
 H     10   5   2     1.086464977402   115.63009011    43.79317871
 H     11   7   5     1.091842633840   110.05989738   139.46479419
 H     11   7   5     1.089925861920   111.58352130    18.93518346
 H     11   7   5     1.092188398596   110.49250186   258.23827662
 H     12  10   5     1.087168004882   118.94580453     0.88254050
 H     14  13  12     1.088287516690   112.07453440   177.04254855
 H     14  13  12     1.092179751979   110.17082964   297.52111501
 H     14  13  12     1.091767761653   110.19508954    56.53162675
 H     15  13  12     1.088650864726   117.40589528   359.85931371
 H     16  15  13     1.085036814106   118.07319945     0.00000000
 H     17  16  15     1.088016083684   118.67404109   359.94112041
 H     19  18  17     1.091616844139   110.33948628   301.46192192
 H     19  18  17     1.088911987311   111.67284895   180.94543458
 H     19  18  17     1.091591534130   110.20323570    60.69673281
 H     20  18  17     1.086300361464   119.47496958   359.53834575
 H     21   1   2     1.098766846314   106.23065987   128.37289087
 H     21   1   2     1.104990574675   110.37548759   244.61359045
 H      1   2   3     0.965228035407    75.57770605    50.07087258

---------------------------
INTERNAL COORDINATES (A.U.)
---------------------------
 O      0   0   0     0.000000000000     0.00000000     0.00000000
 C      1   0   0    24.748861311413     0.00000000     0.00000000
 C      2   1   0     2.907032980485   127.68718014     0.00000000
 C      3   2   1     2.883226186212   111.64275965    91.77895803
 C      2   1   3     2.887401221756    42.29533195    79.65000051
 C      4   3   2     2.884671399612   109.48105034   297.59569267
 C      5   2   1     2.535595446081   122.80684096   219.05456234
 C      2   1   5     2.910740860429   120.90879209    85.15429564
 C      2   1   5     2.908788901369    67.57497706   184.55750385
 C      5   2   1     2.772753396373   114.33854655    40.75026905
 C      7   5   2     2.849785998300   123.37847020   184.14401820
 C     10   5   2     2.545987998500   124.46572575   227.34315590
 C     12  10   5     2.734818095296   125.68890095   178.87290819
 C     13  12  10     2.844616456814   117.72956796     2.68531612
 C     13  12  10     2.568878787425   118.67677419   182.76471356
 C     15  13  12     2.708080300071   127.39014112   179.78135905
 C     16  15  13     2.557099772970   122.14693559   180.03087974
 C     17  16  15     2.738210607438   125.82581985   179.98993099
 C     18  17  16     2.850230660455   117.97915896   359.72663866
 C     18  17  16     2.541480444799   119.54151402   179.46553134
 C      1   2   3     2.665032827626    49.78097474   183.00049794
 H      3   2   1     2.070034452660   109.16106653   331.28166774
 H      3   2   1     2.068110705572   109.34280320   213.78844127
 H      4   3   2     2.067284128870   109.87454690   177.09998575
 H      4   3   2     2.067922211201   110.26648346    58.54906712
 H      6   4   3     2.074194092146   109.46098441   285.79710185
 H      6   4   3     2.069359476443   109.67569543   168.84971403
 H      8   2   1     2.059517209715   110.67306221   258.32580019
 H      8   2   1     2.059700525585   110.69637684    18.34174622
 H      8   2   1     2.061319242996   110.13057937   138.05690494
 H      9   2   1     2.061268248763   109.98077700   179.17466540
 H      9   2   1     2.059483766824   111.06288080   299.19638463
 H      9   2   1     2.060599812995   110.19973495    59.39252094
 H     10   5   2     2.053121261386   115.63009011    43.79317871
 H     11   7   5     2.063283559298   110.05989738   139.46479419
 H     11   7   5     2.059661385307   111.58352130    18.93518346
 H     11   7   5     2.063936959993   110.49250186   258.23827662
 H     12  10   5     2.054449790788   118.94580453     0.88254050
 H     14  13  12     2.056565361510   112.07453440   177.04254855
 H     14  13  12     2.063920620254   110.17082964   297.52111501
 H     14  13  12     2.063142071369   110.19508954    56.53162675
 H     15  13  12     2.057251989788   117.40589528   359.85931371
 H     16  15  13     2.050422423882   118.07319945     0.00000000
 H     17  16  15     2.056052427464   118.67404109   359.94112041
 H     19  18  17     2.062856878598   110.33948628   301.46192192
 H     19  18  17     2.057745439962   111.67284895   180.94543458
 H     19  18  17     2.062809049613   110.20323570    60.69673281
 H     20  18  17     2.052810182347   119.47496958   359.53834575
 H     21   1   2     2.076368424566   106.23065987   128.37289087
 H     21   1   2     2.088129566700   110.37548759   244.61359045
 H      1   2   3     1.824016643701    75.57770605    50.07087258

---------------------
BASIS SET INFORMATION
---------------------
There are 3 groups of distinct atoms

 Group   1 Type O   : 11s6p2d contracted to 5s3p2d pattern {62111/411/11}
 Group   2 Type C   : 11s6p1d contracted to 5s3p1d pattern {62111/411/1}
 Group   3 Type H   : 5s contracted to 3s pattern {311}

Atom   0O    basis set group =>   1
Atom   1C    basis set group =>   2
Atom   2C    basis set group =>   2
Atom   3C    basis set group =>   2
Atom   4C    basis set group =>   2
Atom   5C    basis set group =>   2
Atom   6C    basis set group =>   2
Atom   7C    basis set group =>   2
Atom   8C    basis set group =>   2
Atom   9C    basis set group =>   2
Atom  10C    basis set group =>   2
Atom  11C    basis set group =>   2
Atom  12C    basis set group =>   2
Atom  13C    basis set group =>   2
Atom  14C    basis set group =>   2
Atom  15C    basis set group =>   2
Atom  16C    basis set group =>   2
Atom  17C    basis set group =>   2
Atom  18C    basis set group =>   2
Atom  19C    basis set group =>   2
Atom  20C    basis set group =>   2
Atom  21H    basis set group =>   3
Atom  22H    basis set group =>   3
Atom  23H    basis set group =>   3
Atom  24H    basis set group =>   3
Atom  25H    basis set group =>   3
Atom  26H    basis set group =>   3
Atom  27H    basis set group =>   3
Atom  28H    basis set group =>   3
Atom  29H    basis set group =>   3
Atom  30H    basis set group =>   3
Atom  31H    basis set group =>   3
Atom  32H    basis set group =>   3
Atom  33H    basis set group =>   3
Atom  34H    basis set group =>   3
Atom  35H    basis set group =>   3
Atom  36H    basis set group =>   3
Atom  37H    basis set group =>   3
Atom  38H    basis set group =>   3
Atom  39H    basis set group =>   3
Atom  40H    basis set group =>   3
Atom  41H    basis set group =>   3
Atom  42H    basis set group =>   3
Atom  43H    basis set group =>   3
Atom  44H    basis set group =>   3
Atom  45H    basis set group =>   3
Atom  46H    basis set group =>   3
Atom  47H    basis set group =>   3
Atom  48H    basis set group =>   3
Atom  49H    basis set group =>   3
Atom  50H    basis set group =>   3
---------------------------------
AUXILIARY/J BASIS SET INFORMATION
---------------------------------
There are 3 groups of distinct atoms

 Group   1 Type O   : 8s3p3d contracted to 6s3p3d pattern {311111/111/111}
 Group   2 Type C   : 8s3p3d contracted to 6s3p3d pattern {311111/111/111}
 Group   3 Type H   : 5s2p contracted to 3s1p pattern {311/2}

Atom   0O    basis set group =>   1
Atom   1C    basis set group =>   2
Atom   2C    basis set group =>   2
Atom   3C    basis set group =>   2
Atom   4C    basis set group =>   2
Atom   5C    basis set group =>   2
Atom   6C    basis set group =>   2
Atom   7C    basis set group =>   2
Atom   8C    basis set group =>   2
Atom   9C    basis set group =>   2
Atom  10C    basis set group =>   2
Atom  11C    basis set group =>   2
Atom  12C    basis set group =>   2
Atom  13C    basis set group =>   2
Atom  14C    basis set group =>   2
Atom  15C    basis set group =>   2
Atom  16C    basis set group =>   2
Atom  17C    basis set group =>   2
Atom  18C    basis set group =>   2
Atom  19C    basis set group =>   2
Atom  20C    basis set group =>   2
Atom  21H    basis set group =>   3
Atom  22H    basis set group =>   3
Atom  23H    basis set group =>   3
Atom  24H    basis set group =>   3
Atom  25H    basis set group =>   3
Atom  26H    basis set group =>   3
Atom  27H    basis set group =>   3
Atom  28H    basis set group =>   3
Atom  29H    basis set group =>   3
Atom  30H    basis set group =>   3
Atom  31H    basis set group =>   3
Atom  32H    basis set group =>   3
Atom  33H    basis set group =>   3
Atom  34H    basis set group =>   3
Atom  35H    basis set group =>   3
Atom  36H    basis set group =>   3
Atom  37H    basis set group =>   3
Atom  38H    basis set group =>   3
Atom  39H    basis set group =>   3
Atom  40H    basis set group =>   3
Atom  41H    basis set group =>   3
Atom  42H    basis set group =>   3
Atom  43H    basis set group =>   3
Atom  44H    basis set group =>   3
Atom  45H    basis set group =>   3
Atom  46H    basis set group =>   3
Atom  47H    basis set group =>   3
Atom  48H    basis set group =>   3
Atom  49H    basis set group =>   3
Atom  50H    basis set group =>   3


           ************************************************************
           *        Program running with 16 parallel MPI-processes    *
           *              working on a common directory               *
           ************************************************************
------------------------------------------------------------------------------
                             ORCA STARTUP CALCULATIONS
                           -- RI-GTO INTEGRALS CHOSEN --
------------------------------------------------------------------------------
------------------------------------------------------------------------------
                   ___                                                        
                  /   \      - P O W E R E D   B Y -                         
                 /     \                                                     
                 |  |  |   _    _      __       _____    __    __             
                 |  |  |  | |  | |    /  \     |  _  \  |  |  /  |          
                  \  \/   | |  | |   /    \    | | | |  |  | /  /          
                 / \  \   | |__| |  /  /\  \   | |_| |  |  |/  /          
                |  |  |   |  __  | /  /__\  \  |    /   |      \           
                |  |  |   | |  | | |   __   |  |    \   |  |\   \          
                \     /   | |  | | |  |  |  |  | |\  \  |  | \   \       
                 \___/    |_|  |_| |__|  |__|  |_| \__\ |__|  \__/        
                                                                              
                      - O R C A' S   B I G   F R I E N D -                    
                                      &                                       
                       - I N T E G R A L  F E E D E R -                       
                                                                              
 v1 FN, 2020, v2 2021, v3 2022-2024                                           
------------------------------------------------------------------------------


----------------------
SHARK INTEGRAL PACKAGE
----------------------

Number of atoms                             ...     51
Number of basis functions                   ...    494
Number of shells                            ...    280
Maximum angular momentum                    ...      2
Integral batch strategy                     ... SHARK/LIBINT Hybrid
RI-J (if used) integral strategy            ... SPLIT-RIJ (Revised 2003 algorithm where possible)
Printlevel                                  ...      1
Contraction scheme used                     ... SEGMENTED contraction
Prescreening option                         ... SCHWARTZ
   Thresh                                   ... 2.500e-11
   Tcut                                     ... 2.500e-12
   Tpresel                                  ... 2.500e-12 
Coulomb Range Separation                    ... NOT USED
Exchange Range Separation                   ... NOT USED
Multipole approximations                    ... NOT USED
Finite Nucleus Model                        ... NOT USED
CABS basis                                  ... NOT available
Auxiliary Coulomb fitting basis             ... AVAILABLE
   # of basis functions in Aux-J            ...    810
   # of shells in Aux-J                     ...    372
   Maximum angular momentum in Aux-J        ...      2
Auxiliary J/K fitting basis                 ... NOT available
Auxiliary Correlation fitting basis         ... NOT available
Auxiliary 'external' fitting basis          ... NOT available

Checking pre-screening integrals            ... done (  0.0 sec) Dimension = 280
Check shell pair data                       ... done (  0.0 sec)
Shell pair information
Shell pair cut-off parameter TPreSel        ...   2.5e-12
Total number of shell pairs                 ...     39340
Shell pairs after pre-screening             ...     24248
Total number of primitive shell pairs       ...    140737
Primitive shell pairs kept                  ...     55627
          la=0 lb=0:  11233 shell pairs
          la=1 lb=0:   8233 shell pairs
          la=1 lb=1:   1499 shell pairs
          la=2 lb=0:   2293 shell pairs
          la=2 lb=1:    866 shell pairs
          la=2 lb=2:    124 shell pairs

Calculating one electron integrals          ... done (  0.0 sec)
Calculating RI/J V-Matrix + Cholesky decomp.... done (  0.0 sec)
Calculating Nuclear repulsion               ... done (  0.0 sec) ENN=   1559.915414920026 Eh

Diagonalization of the overlap matrix:
Smallest eigenvalue                        ... 2.093e-05
Time for diagonalization                   ...    0.022 sec
Threshold for overlap eigenvalues          ... 1.000e-07
Number of eigenvalues below threshold      ... 0
Time for construction of square roots      ...    0.013 sec
Total time needed                          ...    0.037 sec

-------------------
DFT GRID GENERATION
-------------------

General Integration Accuracy     IntAcc      ... 4.959
Radial Grid Type                 RadialGrid  ... OptM3 with GC (2021)
Angular Grid (max. ang.)         AngularGrid ... 6 (Lebedev-590)
Angular grid pruning method      GridPruning ... 4 (adaptive)
Weight generation scheme         WeightScheme... mBecke (2022)
Basis function cutoff            BFCut       ... 1.0000e-11
Integration weight cutoff        WCut        ... 1.0000e-14
Partially contracted basis set               ... off
Rotationally invariant grid construction     ... off
Angular grids for H and He will be reduced by one unit
Diffuse basis detected: some atoms will have their outermost
                        angular grid increased by 1.

Total number of grid points                  ...   552745
Total number of batches                      ...     8662
Average number of points per batch           ...       63
Average number of grid points per atom       ...    10838
Initializing property integral containers    ... done (  0.0 sec)

SHARK setup successfully completed in   4.1 seconds

Maximum memory used throughout the entire STARTUP-calculation: 123.8 MB


           ************************************************************
           *        Program running with 16 parallel MPI-processes    *
           *              working on a common directory               *
           ************************************************************
-------------------------------------------------------------------------------
                                 ORCA GUESS
                   Start orbitals & Density for SCF / CASSCF
-------------------------------------------------------------------------------

------------
SCF SETTINGS
------------
Hamiltonian:
 Density Functional     Method          .... DFT(GTOs)
 Exchange Functional    Exchange        .... B973C
 Correlation Functional Correlation     .... B973C
 Gradients option       PostSCFGGA      .... off
 RI-approximation to the Coulomb term is turned on
   Number of AuxJ basis functions       .... 810


General Settings:
 Integral files         IntName         .... m1_00_Vitamin_A-GFN1_000-B97-3C-TZ
 Hartree-Fock type      HFTyp           .... RHF
 Total Charge           Charge          ....    0
 Multiplicity           Mult            ....    1
 Number of Electrons    NEL             ....  158
 Basis Dimension        Dim             ....  494
 Nuclear Repulsion      ENuc            ....   1559.9154149200 Eh

Convergence Acceleration:
 AO-DIIS                CNVDIIS         .... on
   Start iteration      DIISMaxIt       ....    12
   Startup error        DIISStart       ....  0.200000
   # of expansion vecs  DIISMaxEq       ....     5
   Bias factor          DIISBfac        ....   1.050
   Max. coefficient     DIISMaxC        ....  10.000
 MO-DIIS                CNVKDIIS        .... off
 Trust-Rad. Augm. Hess. CNVTRAH         .... off
 SOSCF                  CNVSOSCF        .... on
   Start iteration      SOSCFMaxIt      ....   150
   Startup grad/error   SOSCFStart      ....  0.003300
   Hessian update       SOSCFHessUp     .... L-BFGS
 Level Shifting         CNVShift        .... on
   Level shift para.    LevelShift      ....    0.2500
   Turn off err/grad.   ShiftErr        ....    0.0010
 Zerner damping         CNVZerner       .... off
 Static damping         CNVDamp         .... on
   Fraction old density DampFac         ....    0.7000
   Max. Damping (<1)    DampMax         ....    0.9800
   Min. Damping (>=0)   DampMin         ....    0.0000
   Turn off err/grad.   DampErr         ....    0.1000

SCF Procedure:
 Maximum # iterations   MaxIter         ....   800
 SCF integral mode      SCFMode         .... Direct
   Integral package                     .... SHARK and LIBINT hybrid scheme
 Reset frequency        DirectResetFreq ....    20
 Integral Threshold     Thresh          ....  2.500e-11 Eh
 Primitive CutOff       TCut            ....  2.500e-12 Eh

Convergence Tolerance:
 Convergence Check Mode ConvCheckMode   .... Total+1el-Energy
 Convergence forced     ConvForced      .... 0
 Energy Change          TolE            ....  1.000e-08 Eh
 1-El. energy change                    ....  1.000e-05 Eh
 Orbital Gradient       TolG            ....  1.000e-05
 Orbital Rotation angle TolX            ....  1.000e-05
 DIIS Error             TolErr          ....  5.000e-07

--------------------------------
INITIAL GUESS: MINIMAL BASIS EHT
--------------------------------
The minimal basis has 135 functions
EHT matrix was diagonalized
Basis set overlap was calculated now projecting the orbitals
Using GuessMode=FMatrix for the initial guess
C*T matrix was formed
Effective Fockian was calculated
Effective Fockian was diagonalized
Initial density was built
                      ------------------
                      INITIAL GUESS DONE
                      ------------------
             **** ENERGY FILE WAS UPDATED (m1_00_Vitamin_A-GFN1_000-B97-3C-TZ.en.tmp) ****
Finished Guess after   0.3 sec
Maximum memory used throughout the entire GUESS-calculation: 41.5 MB


           ************************************************************
           *        Program running with 16 parallel MPI-processes    *
           *              working on a common directory               *
           ************************************************************

-------------------------------------------------------------------------------------------
                                      ORCA LEAN-SCF
                              memory conserving SCF solver
-------------------------------------------------------------------------------------------

----------------------------------------D-I-I-S--------------------------------------------
Iteration    Energy (Eh)           Delta-E    RMSDP     MaxDP     DIISErr   Damp  Time(sec)
-------------------------------------------------------------------------------------------
               ***  Starting incremental Fock matrix formation  ***
    1    -852.7029642436211816     0.00e+00  4.11e-03  1.34e-01  4.63e-01  0.700   0.8
Warning: op=0 Small HOMO/LUMO gap (   0.080) - skipping pre-diagonalization
         Will do a full diagonalization
    2    -853.3148530549108273    -6.12e-01  4.45e-03  4.86e-01  3.26e-01  0.700   0.9
    3    -853.7272167817407080    -4.12e-01  2.59e-03  1.80e-01  2.28e-01  0.700   0.8
                               ***Turning on AO-DIIS***
    4    -854.0138300164701377    -2.87e-01  1.77e-03  9.57e-02  1.59e-01  0.700   0.8
    5    -854.2109635238500687    -1.97e-01  1.23e-03  4.85e-02  1.11e-01  0.700   0.8
    6    -854.3527654906654334    -1.42e-01  8.85e-04  3.52e-02  7.78e-02  0.700   0.8
    7    -854.4529592744409001    -1.00e-01  2.11e-03  8.34e-02  5.44e-02  0.000   0.8
    8    -854.6849957854353761    -2.32e-01  4.83e-04  7.01e-02  2.10e-02  0.000   0.8
    9    -854.6854081840117487    -4.12e-04  6.13e-05  3.61e-03  1.41e-02  0.000   0.8
                              *** Initializing SOSCF ***
---------------------------------------S-O-S-C-F--------------------------------------
Iteration    Energy (Eh)           Delta-E    RMSDP     MaxDP     MaxGrad    Time(sec)
--------------------------------------------------------------------------------------
   10    -854.6856401665074827    -2.32e-04  4.05e-05  4.64e-03  2.29e-03     0.9
               *** Restarting incremental Fock matrix formation ***
   11    -854.6856537504534117    -1.36e-05  7.13e-05  1.18e-02  1.38e-04     0.9
   12    -854.6856511238054281     2.63e-06  3.67e-05  5.91e-03  2.82e-04     0.8
   13    -854.6856547480822428    -3.62e-06  9.63e-06  6.98e-04  3.64e-05     0.7
   14    -854.6856545677071608     1.80e-07  5.17e-06  6.92e-04  9.00e-05     0.7
   15    -854.6856547867703284    -2.19e-07  4.18e-06  3.21e-04  3.58e-06     0.7
   16    -854.6856547794507151     7.32e-09  2.62e-06  2.23e-04  1.05e-05     0.7
                 **** Energy Check signals convergence ****

               *****************************************************
               *                     SUCCESS                       *
               *           SCF CONVERGED AFTER  16 CYCLES          *
               *****************************************************

             **** ENERGY FILE WAS UPDATED (m1_00_Vitamin_A-GFN1_000-B97-3C-TZ.en.tmp) ****

----------------
TOTAL SCF ENERGY
----------------

Total Energy       :       -854.68565477945072 Eh          -23257.17904 eV

Components:
Nuclear Repulsion  :       1559.91541492002648 Eh           42447.45643 eV
Electronic Energy  :      -2414.60106969947719 Eh          -65704.63547 eV
One Electron Energy:      -4254.12459112619308 Eh         -115760.61528 eV
Two Electron Energy:       1839.52352142671589 Eh           50055.97981 eV

Virial components:
Potential Energy   :      -1705.99712994042420 Eh          -46422.54198 eV
Kinetic Energy     :        851.31147516097349 Eh           23165.36294 eV
Virial Ratio       :          2.00396350773709

DFT components:
N(Alpha)           :       79.000004551237 electrons
N(Beta)            :       79.000004551237 electrons
N(Total)           :      158.000009102475 electrons
E(XC)              :     -127.681783832221 Eh       

---------------
SCF CONVERGENCE
---------------

  Last Energy change         ...   -7.3196e-09  Tolerance :   1.0000e-08
  Last MAX-Density change    ...    2.2269e-04  Tolerance :   1.0000e-07
  Last RMS-Density change    ...    2.6196e-06  Tolerance :   5.0000e-09
  Last DIIS Error            ...    2.2875e-03  Tolerance :   5.0000e-07
  Last Orbital Gradient      ...    1.0483e-05  Tolerance :   1.0000e-05
  Last Orbital Rotation      ...    1.7250e-05  Tolerance :   1.0000e-05


----------------
ORBITAL ENERGIES
----------------

  NO   OCC          E(Eh)            E(eV) 
   0   2.0000     -18.744247      -510.0569 
   1   2.0000      -9.943294      -270.5708 
   2   2.0000      -9.902809      -269.4691 
   3   2.0000      -9.900455      -269.4051 
   4   2.0000      -9.900308      -269.4011 
   5   2.0000      -9.892665      -269.1931 
   6   2.0000      -9.891925      -269.1730 
   7   2.0000      -9.891444      -269.1599 
   8   2.0000      -9.890916      -269.1455 
   9   2.0000      -9.889777      -269.1145 
  10   2.0000      -9.889046      -269.0946 
  11   2.0000      -9.887472      -269.0518 
  12   2.0000      -9.886906      -269.0364 
  13   2.0000      -9.886150      -269.0158 
  14   2.0000      -9.885844      -269.0075 
  15   2.0000      -9.884208      -268.9630 
  16   2.0000      -9.881754      -268.8962 
  17   2.0000      -9.880461      -268.8610 
  18   2.0000      -9.876281      -268.7473 
  19   2.0000      -9.875484      -268.7256 
  20   2.0000      -9.872301      -268.6390 
  21   2.0000      -0.944728       -25.7073 
  22   2.0000      -0.781369       -21.2621 
  23   2.0000      -0.765137       -20.8204 
  24   2.0000      -0.750485       -20.4217 
  25   2.0000      -0.717672       -19.5289 
  26   2.0000      -0.713063       -19.4034 
  27   2.0000      -0.692750       -18.8507 
  28   2.0000      -0.661111       -17.9897 
  29   2.0000      -0.651413       -17.7258 
  30   2.0000      -0.629564       -17.1313 
  31   2.0000      -0.619755       -16.8644 
  32   2.0000      -0.618932       -16.8420 
  33   2.0000      -0.609881       -16.5957 
  34   2.0000      -0.600825       -16.3493 
  35   2.0000      -0.560135       -15.2420 
  36   2.0000      -0.532982       -14.5032 
  37   2.0000      -0.513270       -13.9668 
  38   2.0000      -0.498329       -13.5602 
  39   2.0000      -0.485248       -13.2043 
  40   2.0000      -0.470597       -12.8056 
  41   2.0000      -0.463076       -12.6010 
  42   2.0000      -0.450286       -12.2529 
  43   2.0000      -0.432012       -11.7557 
  44   2.0000      -0.424783       -11.5589 
  45   2.0000      -0.416164       -11.3244 
  46   2.0000      -0.403893       -10.9905 
  47   2.0000      -0.401483       -10.9249 
  48   2.0000      -0.396479       -10.7887 
  49   2.0000      -0.388585       -10.5739 
  50   2.0000      -0.382088       -10.3971 
  51   2.0000      -0.378152       -10.2900 
  52   2.0000      -0.377202       -10.2642 
  53   2.0000      -0.375310       -10.2127 
  54   2.0000      -0.371247       -10.1021 
  55   2.0000      -0.358639        -9.7591 
  56   2.0000      -0.353862        -9.6291 
  57   2.0000      -0.349885        -9.5209 
  58   2.0000      -0.344806        -9.3826 
  59   2.0000      -0.343691        -9.3523 
  60   2.0000      -0.339485        -9.2379 
  61   2.0000      -0.329505        -8.9663 
  62   2.0000      -0.326973        -8.8974 
  63   2.0000      -0.324520        -8.8307 
  64   2.0000      -0.311783        -8.4841 
  65   2.0000      -0.309325        -8.4171 
  66   2.0000      -0.305916        -8.3244 
  67   2.0000      -0.299685        -8.1548 
  68   2.0000      -0.299180        -8.1411 
  69   2.0000      -0.294962        -8.0263 
  70   2.0000      -0.290410        -7.9024 
  71   2.0000      -0.280578        -7.6349 
  72   2.0000      -0.270201        -7.3525 
  73   2.0000      -0.261180        -7.1071 
  74   2.0000      -0.252935        -6.8827 
  75   2.0000      -0.235859        -6.4180 
  76   2.0000      -0.226163        -6.1542 
  77   2.0000      -0.200370        -5.4523 
  78   2.0000      -0.165126        -4.4933 
  79   0.0000      -0.080842        -2.1998 
  80   0.0000      -0.025593        -0.6964 
  81   0.0000       0.005034         0.1370 
  82   0.0000       0.020224         0.5503 
  83   0.0000       0.021005         0.5716 
  84   0.0000       0.028389         0.7725 
  85   0.0000       0.034525         0.9395 
  86   0.0000       0.037391         1.0175 
  87   0.0000       0.041175         1.1204 
  88   0.0000       0.048262         1.3133 
  89   0.0000       0.051632         1.4050 
*Only the first 10 virtual orbitals were printed.

                    ********************************
                    * MULLIKEN POPULATION ANALYSIS *
                    ********************************

-----------------------
MULLIKEN ATOMIC CHARGES
-----------------------
   0 O :   -0.558208
   1 C :   -0.050663
   2 C :   -0.306982
   3 C :   -0.336240
   4 C :    0.312030
   5 C :   -0.305138
   6 C :   -0.015634
   7 C :   -0.553524
   8 C :   -0.450004
   9 C :   -0.347091
  10 C :   -0.581560
  11 C :   -0.348064
  12 C :    0.274247
  13 C :   -0.573859
  14 C :   -0.225066
  15 C :   -0.101087
  16 C :   -0.296465
  17 C :    0.255514
  18 C :   -0.602879
  19 C :   -0.256857
  20 C :   -0.286550
  21 H :    0.163986
  22 H :    0.174372
  23 H :    0.172087
  24 H :    0.167668
  25 H :    0.158158
  26 H :    0.167945
  27 H :    0.175415
  28 H :    0.161982
  29 H :    0.169199
  30 H :    0.169709
  31 H :    0.165286
  32 H :    0.168423
  33 H :    0.176456
  34 H :    0.154850
  35 H :    0.213894
  36 H :    0.167738
  37 H :    0.162679
  38 H :    0.172260
  39 H :    0.177999
  40 H :    0.181342
  41 H :    0.132113
  42 H :    0.153039
  43 H :    0.135485
  44 H :    0.182833
  45 H :    0.190145
  46 H :    0.185116
  47 H :    0.172691
  48 H :    0.188081
  49 H :    0.175094
  50 H :    0.418035
Sum of atomic charges:    0.0000000

--------------------------------
MULLIKEN REDUCED ORBITAL CHARGES
--------------------------------
  0 O s       :     3.808733  s :     3.808733
      pz      :     1.696410  p :     4.720418
      px      :     1.762300
      py      :     1.261708
      dz2     :     0.001504  d :     0.029056
      dxz     :     0.005967
      dyz     :     0.005175
      dx2y2   :     0.003881
      dxy     :     0.012529

  1 C s       :     3.012433  s :     3.012433
      pz      :     0.995538  p :     2.982010
      px      :     1.031934
      py      :     0.954538
      dz2     :     0.006972  d :     0.056220
      dxz     :     0.014348
      dyz     :     0.013794
      dx2y2   :     0.010535
      dxy     :     0.010572

  2 C s       :     3.161893  s :     3.161893
      pz      :     1.052223  p :     3.100315
      px      :     1.019165
      py      :     1.028927
      dz2     :     0.006693  d :     0.044775
      dxz     :     0.013947
      dyz     :     0.007380
      dx2y2   :     0.011134
      dxy     :     0.005620

  3 C s       :     3.203681  s :     3.203681
      pz      :     0.961385  p :     3.088148
      px      :     1.059046
      py      :     1.067716
      dz2     :     0.008631  d :     0.044412
      dxz     :     0.011093
      dyz     :     0.008097
      dx2y2   :     0.010494
      dxy     :     0.006096

  4 C s       :     3.088154  s :     3.088154
      pz      :     0.760191  p :     2.551357
      px      :     0.863206
      py      :     0.927960
      dz2     :     0.012426  d :     0.048459
      dxz     :     0.016176
      dyz     :     0.008572
      dx2y2   :     0.005982
      dxy     :     0.005304

  5 C s       :     3.137618  s :     3.137618
      pz      :     1.055632  p :     3.121888
      px      :     0.945378
      py      :     1.120878
      dz2     :     0.005499  d :     0.045633
      dxz     :     0.010189
      dyz     :     0.012351
      dx2y2   :     0.012362
      dxy     :     0.005232

  6 C s       :     3.178376  s :     3.178376
      pz      :     0.853924  p :     2.790216
      px      :     0.956764
      py      :     0.979527
      dz2     :     0.012152  d :     0.047043
      dxz     :     0.015417
      dyz     :     0.009269
      dx2y2   :     0.005573
      dxy     :     0.004632

  7 C s       :     3.264010  s :     3.264010
      pz      :     1.103572  p :     3.251968
      px      :     1.124623
      py      :     1.023773
      dz2     :     0.002178  d :     0.037546
      dxz     :     0.011747
      dyz     :     0.010225
      dx2y2   :     0.006651
      dxy     :     0.006745

  8 C s       :     3.198016  s :     3.198016
      pz      :     1.071246  p :     3.214163
      px      :     1.095376
      py      :     1.047541
      dz2     :     0.002704  d :     0.037825
      dxz     :     0.012148
      dyz     :     0.009694
      dx2y2   :     0.006424
      dxy     :     0.006856

  9 C s       :     3.222946  s :     3.222946
      pz      :     1.022977  p :     3.082631
      px      :     1.080182
      py      :     0.979472
      dz2     :     0.006734  d :     0.041514
      dxz     :     0.009444
      dyz     :     0.007036
      dx2y2   :     0.009338
      dxy     :     0.008962

 10 C s       :     3.308653  s :     3.308653
      pz      :     1.060536  p :     3.234776
      px      :     1.072942
      py      :     1.101297
      dz2     :     0.003670  d :     0.038132
      dxz     :     0.010079
      dyz     :     0.011426
      dx2y2   :     0.004437
      dxy     :     0.008520

 11 C s       :     3.333204  s :     3.333204
      pz      :     0.926157  p :     2.972281
      px      :     1.054709
      py      :     0.991415
      dz2     :     0.005924  d :     0.042579
      dxz     :     0.010078
      dyz     :     0.007178
      dx2y2   :     0.010293
      dxy     :     0.009106

 12 C s       :     3.168429  s :     3.168429
      pz      :     0.752535  p :     2.508532
      px      :     0.939436
      py      :     0.816561
      dz2     :     0.008493  d :     0.048792
      dxz     :     0.012385
      dyz     :     0.006442
      dx2y2   :     0.010941
      dxy     :     0.010531

 13 C s       :     3.273215  s :     3.273215
      pz      :     1.031993  p :     3.262884
      px      :     1.173674
      py      :     1.057218
      dz2     :     0.008465  d :     0.037759
      dxz     :     0.006672
      dyz     :     0.008204
      dx2y2   :     0.009451
      dxy     :     0.004967

 14 C s       :     3.266923  s :     3.266923
      pz      :     0.910059  p :     2.916046
      px      :     1.062836
      py      :     0.943151
      dz2     :     0.005663  d :     0.042097
      dxz     :     0.010122
      dyz     :     0.006800
      dx2y2   :     0.010078
      dxy     :     0.009435

 15 C s       :     3.073081  s :     3.073081
      pz      :     0.951386  p :     2.986195
      px      :     1.037929
      py      :     0.996880
      dz2     :     0.005761  d :     0.041812
      dxz     :     0.010375
      dyz     :     0.006865
      dx2y2   :     0.009516
      dxy     :     0.009294

 16 C s       :     3.312264  s :     3.312264
      pz      :     0.954253  p :     2.942356
      px      :     1.005389
      py      :     0.982714
      dz2     :     0.005900  d :     0.041845
      dxz     :     0.010189
      dyz     :     0.006700
      dx2y2   :     0.009835
      dxy     :     0.009221

 17 C s       :     3.113197  s :     3.113197
      pz      :     0.799099  p :     2.581833
      px      :     0.922630
      py      :     0.860104
      dz2     :     0.009578  d :     0.049457
      dxz     :     0.011756
      dyz     :     0.006557
      dx2y2   :     0.011771
      dxy     :     0.009795

 18 C s       :     3.306046  s :     3.306046
      pz      :     1.034522  p :     3.259213
      px      :     1.152522
      py      :     1.072170
      dz2     :     0.010075  d :     0.037620
      dxz     :     0.006153
      dyz     :     0.006351
      dx2y2   :     0.011889
      dxy     :     0.003151

 19 C s       :     3.223201  s :     3.223201
      pz      :     0.989790  p :     2.995438
      px      :     0.977289
      py      :     1.028358
      dz2     :     0.005751  d :     0.038218
      dxz     :     0.009373
[...]
114:   1504.94   0.001656    8.37  0.000343  ( 0.018148  0.001190  0.003568)
115:   1509.20   0.001602    8.10  0.000331  (-0.011385 -0.003258  0.013823)
116:   1514.50   0.000677    3.42  0.000139  ( 0.008905  0.005134 -0.005814)
117:   1519.62   0.001653    8.35  0.000339  ( 0.011040  0.012918  0.007116)
118:   1599.45   0.001957    9.89  0.000382  ( 0.012413 -0.010281  0.011051)
119:   1609.88   0.005246   26.51  0.001017  ( 0.029641 -0.011719  0.000974)
120:   1643.66   0.001546    7.81  0.000294  (-0.012519 -0.002352  0.011458)
121:   1652.92   0.000528    2.67  0.000100  (-0.006507  0.007485 -0.001158)
122:   1661.32   0.001831    9.25  0.000344  (-0.018511  0.000456  0.001008)
123:   2938.18   0.008163   41.25  0.000867  ( 0.012734  0.012143 -0.023608)
124:   2975.07   0.009519   48.11  0.000999  (-0.004504  0.005208  0.030840)
125:   2975.52   0.006311   31.89  0.000662  ( 0.014745  0.021077 -0.000495)
126:   2984.01   0.015188   76.75  0.001588  (-0.034694 -0.019601 -0.000625)
127:   2989.13   0.002677   13.53  0.000280  (-0.008889 -0.007504 -0.012008)
128:   2992.78   0.004813   24.32  0.000502  ( 0.006926 -0.021289  0.000830)
129:   2996.78   0.009325   47.12  0.000971  (-0.016652  0.014821 -0.021772)
130:   2997.96   0.010886   55.01  0.001133  (-0.004039 -0.008316 -0.032368)
131:   3002.13   0.014706   74.32  0.001529  (-0.031534  0.011729  0.019917)
132:   3002.47   0.004701   23.76  0.000489  (-0.005486 -0.016511  0.013634)
133:   3018.23   0.017817   90.04  0.001842  ( 0.040656 -0.002620  0.013506)
134:   3020.23   0.005957   30.11  0.000616  (-0.008358  0.003827 -0.023044)
135:   3020.88   0.013738   69.43  0.001419  (-0.022617  0.025438  0.016141)
136:   3035.17   0.011857   59.92  0.001219  ( 0.006892  0.029811 -0.016820)
137:   3042.41   0.003499   17.68  0.000359  (-0.001126 -0.015989 -0.010097)
138:   3050.31   0.003537   17.88  0.000362  ( 0.002997  0.014330  0.012147)
139:   3059.99   0.001902    9.61  0.000194  (-0.000543  0.013498 -0.003382)
140:   3064.58   0.021748  109.90  0.002215  (-0.041809 -0.002717 -0.021428)
141:   3076.05   0.000633    3.20  0.000064  (-0.003506 -0.002452  0.006774)
142:   3076.41   0.007050   35.63  0.000715  (-0.018456 -0.017942  0.007250)
143:   3080.24   0.006379   32.24  0.000646  (-0.016036  0.012272  0.015445)
144:   3082.58   0.000086    0.43  0.000009  (-0.002903 -0.000437  0.000242)
145:   3089.94   0.007853   39.69  0.000793  (-0.008544 -0.014428  0.022627)
146:   3095.51   0.001214    6.14  0.000122  (-0.002790 -0.002304  0.010455)
147:   3102.93   0.010875   54.96  0.001094  (-0.023901 -0.012206  0.019325)
148:   3108.48   0.001194    6.03  0.000120  (-0.008239 -0.001418  0.007066)
149:   3110.32   0.001385    7.00  0.000139  (-0.002467 -0.004577  0.010578)
150:   3111.18   0.008264   41.76  0.000829  ( 0.028574 -0.001132 -0.003344)
151:   3131.36   0.007809   39.46  0.000778  (-0.021287 -0.008798  0.015737)
152:   3729.20   0.001875    9.48  0.000157  ( 0.000331  0.010697  0.006509)

* The epsilon (eps) is given for a Dirac delta lineshape.
** The dipole moment derivative (T) already includes vibrational overlap.

The first frequency considered to be a vibration is 6
The total number of vibrations considered is 147


--------------------------
THERMOCHEMISTRY AT 298.15K
--------------------------

Temperature         ...   298.15 K
Pressure            ...     1.00 atm
Total Mass          ...   286.46 AMU
Quasi RRHO          ...     True
Cut-Off Frequency   ...     1.00 cm^-1

Throughout the following assumptions are being made:
  (1) The electronic state is orbitally nondegenerate
  (2) There are no thermally accessible electronically excited states
  (3) Hindered rotations indicated by low frequency modes are not
      treated as such but are treated as vibrations and this may
      cause some error
  (4) All equations used are the standard statistical mechanics
      equations for an ideal gas
  (5) All vibrations are strictly harmonic

freq.      17.20  E(vib)   ...       0.57 
freq.      28.70  E(vib)   ...       0.55 
freq.      33.33  E(vib)   ...       0.55 
freq.      47.51  E(vib)   ...       0.53 
freq.      53.98  E(vib)   ...       0.52 
freq.      70.35  E(vib)   ...       0.50 
freq.      81.19  E(vib)   ...       0.48 
freq.     103.11  E(vib)   ...       0.46 
freq.     106.47  E(vib)   ...       0.45 
freq.     119.31  E(vib)   ...       0.44 
freq.     154.26  E(vib)   ...       0.40 
freq.     167.72  E(vib)   ...       0.38 
freq.     172.59  E(vib)   ...       0.38 
freq.     179.98  E(vib)   ...       0.37 
freq.     193.00  E(vib)   ...       0.36 
freq.     214.07  E(vib)   ...       0.34 
freq.     224.95  E(vib)   ...       0.33 
freq.     242.35  E(vib)   ...       0.31 
freq.     258.87  E(vib)   ...       0.30 
freq.     271.36  E(vib)   ...       0.29 
freq.     275.06  E(vib)   ...       0.28 
freq.     308.92  E(vib)   ...       0.26 
freq.     312.08  E(vib)   ...       0.25 
freq.     320.29  E(vib)   ...       0.25 
freq.     336.28  E(vib)   ...       0.24 
freq.     346.95  E(vib)   ...       0.23 
freq.     352.54  E(vib)   ...       0.22 
freq.     368.39  E(vib)   ...       0.21 
freq.     388.95  E(vib)   ...       0.20 
freq.     412.22  E(vib)   ...       0.19 
freq.     424.36  E(vib)   ...       0.18 
freq.     437.12  E(vib)   ...       0.17 
freq.     476.77  E(vib)   ...       0.15 
freq.     484.21  E(vib)   ...       0.15 
freq.     496.22  E(vib)   ...       0.14 
freq.     520.55  E(vib)   ...       0.13 
freq.     527.61  E(vib)   ...       0.13 
freq.     535.94  E(vib)   ...       0.12 
freq.     581.08  E(vib)   ...       0.11 
freq.     605.63  E(vib)   ...       0.10 
freq.     616.62  E(vib)   ...       0.09 
freq.     645.89  E(vib)   ...       0.09 
freq.     740.64  E(vib)   ...       0.06 
freq.     796.53  E(vib)   ...       0.05 
freq.     802.20  E(vib)   ...       0.05 
freq.     837.58  E(vib)   ...       0.04 
freq.     851.41  E(vib)   ...       0.04 
freq.     855.98  E(vib)   ...       0.04 
freq.     871.48  E(vib)   ...       0.04 
freq.     890.44  E(vib)   ...       0.04 
freq.     895.14  E(vib)   ...       0.03 
freq.     899.98  E(vib)   ...       0.03 
freq.     912.29  E(vib)   ...       0.03 
freq.     937.06  E(vib)   ...       0.03 
freq.     947.76  E(vib)   ...       0.03 
freq.     951.76  E(vib)   ...       0.03 
freq.     969.02  E(vib)   ...       0.03 
freq.     980.35  E(vib)   ...       0.02 
freq.     985.64  E(vib)   ...       0.02 
freq.     990.85  E(vib)   ...       0.02 
freq.    1008.08  E(vib)   ...       0.02 
freq.    1022.80  E(vib)   ...       0.02 
freq.    1025.12  E(vib)   ...       0.02 
freq.    1037.64  E(vib)   ...       0.02 
freq.    1048.81  E(vib)   ...       0.02 
freq.    1049.27  E(vib)   ...       0.02 
freq.    1053.15  E(vib)   ...       0.02 
freq.    1064.59  E(vib)   ...       0.02 
freq.    1082.01  E(vib)   ...       0.02 
freq.    1098.52  E(vib)   ...       0.02 
freq.    1144.74  E(vib)   ...       0.01 
freq.    1156.57  E(vib)   ...       0.01 
freq.    1187.68  E(vib)   ...       0.01 
freq.    1191.44  E(vib)   ...       0.01 
freq.    1201.07  E(vib)   ...       0.01 
freq.    1202.21  E(vib)   ...       0.01 
freq.    1226.46  E(vib)   ...       0.01 
freq.    1230.42  E(vib)   ...       0.01 
freq.    1234.93  E(vib)   ...       0.01 
freq.    1264.55  E(vib)   ...       0.01 
freq.    1282.47  E(vib)   ...       0.01 
freq.    1300.88  E(vib)   ...       0.01 
freq.    1309.08  E(vib)   ...       0.01 
freq.    1332.87  E(vib)   ...       0.01 
freq.    1338.49  E(vib)   ...       0.01 
freq.    1340.80  E(vib)   ...       0.01 
freq.    1348.80  E(vib)   ...       0.01 
freq.    1366.42  E(vib)   ...       0.01 
freq.    1376.20  E(vib)   ...       0.01 
freq.    1383.74  E(vib)   ...       0.00 
freq.    1386.64  E(vib)   ...       0.00 
freq.    1394.63  E(vib)   ...       0.00 
freq.    1397.04  E(vib)   ...       0.00 
freq.    1409.51  E(vib)   ...       0.00 
freq.    1410.32  E(vib)   ...       0.00 
freq.    1418.80  E(vib)   ...       0.00 
freq.    1419.81  E(vib)   ...       0.00 
freq.    1427.50  E(vib)   ...       0.00 
freq.    1475.87  E(vib)   ...       0.00 
freq.    1485.57  E(vib)   ...       0.00 
freq.    1490.01  E(vib)   ...       0.00 
freq.    1491.76  E(vib)   ...       0.00 
freq.    1492.33  E(vib)   ...       0.00 
freq.    1493.91  E(vib)   ...       0.00 
freq.    1496.68  E(vib)   ...       0.00 
freq.    1498.86  E(vib)   ...       0.00 
freq.    1499.35  E(vib)   ...       0.00 
freq.    1501.62  E(vib)   ...       0.00 
freq.    1504.94  E(vib)   ...       0.00 
freq.    1509.20  E(vib)   ...       0.00 
freq.    1514.50  E(vib)   ...       0.00 
freq.    1519.62  E(vib)   ...       0.00 
freq.    1599.45  E(vib)   ...       0.00 
freq.    1609.88  E(vib)   ...       0.00 
freq.    1643.66  E(vib)   ...       0.00 
freq.    1652.92  E(vib)   ...       0.00 
freq.    1661.32  E(vib)   ...       0.00 
freq.    2938.18  E(vib)   ...       0.00 
freq.    2975.07  E(vib)   ...       0.00 
freq.    2975.52  E(vib)   ...       0.00 
freq.    2984.01  E(vib)   ...       0.00 
freq.    2989.13  E(vib)   ...       0.00 
freq.    2992.78  E(vib)   ...       0.00 
freq.    2996.78  E(vib)   ...       0.00 
freq.    2997.96  E(vib)   ...       0.00 
freq.    3002.13  E(vib)   ...       0.00 
freq.    3002.47  E(vib)   ...       0.00 
freq.    3018.23  E(vib)   ...       0.00 
freq.    3020.23  E(vib)   ...       0.00 
freq.    3020.88  E(vib)   ...       0.00 
freq.    3035.17  E(vib)   ...       0.00 
freq.    3042.41  E(vib)   ...       0.00 
freq.    3050.31  E(vib)   ...       0.00 
freq.    3059.99  E(vib)   ...       0.00 
freq.    3064.58  E(vib)   ...       0.00 
freq.    3076.05  E(vib)   ...       0.00 
freq.    3076.41  E(vib)   ...       0.00 
freq.    3080.24  E(vib)   ...       0.00 
freq.    3082.58  E(vib)   ...       0.00 
freq.    3089.94  E(vib)   ...       0.00 
freq.    3095.51  E(vib)   ...       0.00 
freq.    3102.93  E(vib)   ...       0.00 
freq.    3108.48  E(vib)   ...       0.00 
freq.    3110.32  E(vib)   ...       0.00 
freq.    3111.18  E(vib)   ...       0.00 
freq.    3131.36  E(vib)   ...       0.00 
freq.    3729.20  E(vib)   ...       0.00 

------------
INNER ENERGY
------------

The inner energy is: U= E(el) + E(ZPE) + E(vib) + E(rot) + E(trans)
    E(el)   - is the total energy from the electronic structure calculation
              = E(kin-el) + E(nuc-el) + E(el-el) + E(nuc-nuc)
    E(ZPE)  - the the zero temperature vibrational energy from the frequency calculation
    E(vib)  - the the finite temperature correction to E(ZPE) due to population
              of excited vibrational states
    E(rot)  - is the rotational thermal energy
    E(trans)- is the translational thermal energy

Summary of contributions to the inner energy U:
Electronic energy                ...   -854.95841073 Eh
Zero point energy                ...      0.44858395 Eh     281.49 kcal/mol
Thermal vibrational correction   ...      0.02149443 Eh      13.49 kcal/mol
Thermal rotational correction    ...      0.00141627 Eh       0.89 kcal/mol
Thermal translational correction ...      0.00141627 Eh       0.89 kcal/mol
-----------------------------------------------------------------------
Total thermal energy                   -854.48549981 Eh


Summary of corrections to the electronic energy:
(perhaps to be used in another calculation)
Total thermal correction                  0.02432697 Eh      15.27 kcal/mol
Non-thermal (ZPE) correction              0.44858395 Eh     281.49 kcal/mol
-----------------------------------------------------------------------
Total correction                          0.47291092 Eh     296.76 kcal/mol


--------
ENTHALPY
--------

The enthalpy is H = U + kB*T
                kB is Boltzmann's constant
Total thermal energy              ...   -854.48549981 Eh 
Thermal Enthalpy correction       ...      0.00094421 Eh       0.59 kcal/mol
-----------------------------------------------------------------------
Total Enthalpy                    ...   -854.48455560 Eh


Note: Only C1 symmetry has been detected, increase convergence thresholds 
      if your molecule has a higher symmetry. Symmetry factor of 1.0 is   
      used for the rotational entropy correction. 
 

Note: Rotational entropy computed according to Herzberg 
Infrared and Raman Spectra, Chapter V,1, Van Nostrand Reinhold, 1945 
Point Group:  C1, Symmetry Number:   1  
Rotational constants in cm-1:     0.026737     0.002595     0.002501 

Vibrational entropy computed according to the QRRHO of S. Grimme
Chem.Eur.J. 2012 18 9955 using a reference frequency of 100.0 cm-1


-------
ENTROPY
-------

The entropy contributions are T*S = T*(S(el)+S(vib)+S(rot)+S(trans))
     S(el)   - electronic entropy
     S(vib)  - vibrational entropy
     S(rot)  - rotational entropy
     S(trans)- translational entropy
The entropies will be listed as multiplied by the temperature to get
units of energy

Electronic entropy                ...      0.00000000 Eh      0.00 kcal/mol
Vibrational entropy               ...      0.03832697 Eh     24.05 kcal/mol
Rotational entropy                ...      0.01685982 Eh     10.58 kcal/mol
Translational entropy             ...      0.02036176 Eh     12.78 kcal/mol
-----------------------------------------------------------------------
Final entropy term                ...      0.07554856 Eh     47.41 kcal/mol

In case the symmetry of your molecule has not been determined correctly
or in case you have a reason to use a different symmetry number we print 
out the resulting rotational entropy values for sn=1,12:

 non-linear molecules -----------------------------------
|  sn= 1 | S(rot)=       0.01685982 Eh     10.58 kcal/mol|
|  sn= 2 | S(rot)=       0.01620537 Eh     10.17 kcal/mol|
|  sn= 3 | S(rot)=       0.01582254 Eh      9.93 kcal/mol|
|  sn= 4 | S(rot)=       0.01555091 Eh      9.76 kcal/mol|
|  sn= 5 | S(rot)=       0.01534022 Eh      9.63 kcal/mol|
|  sn= 6 | S(rot)=       0.01516808 Eh      9.52 kcal/mol|
|  sn= 7 | S(rot)=       0.01502253 Eh      9.43 kcal/mol|
|  sn= 8 | S(rot)=       0.01489646 Eh      9.35 kcal/mol|
|  sn= 9 | S(rot)=       0.01478525 Eh      9.28 kcal/mol|
|  sn=10 | S(rot)=       0.01468577 Eh      9.22 kcal/mol|
|  sn=11 | S(rot)=       0.01459578 Eh      9.16 kcal/mol|
|  sn=12 | S(rot)=       0.01451362 Eh      9.11 kcal/mol|
 linear molecules ---------------------------------------
|  Dinfh | S(rot)=       0.01098261 Eh      6.89 kcal/mol|
|  Cinfv | S(rot)=       0.01163707 Eh      7.30 kcal/mol|
 --------------------------------------------------------


-------------------
GIBBS FREE ENERGY
-------------------

The Gibbs free energy is G = H - T*S

Total enthalpy                    ...   -854.48455560 Eh 
Total entropy correction          ...     -0.07554856 Eh    -47.41 kcal/mol
-----------------------------------------------------------------------
Final Gibbs free energy         ...   -854.56010416 Eh

For completeness - the Gibbs free energy minus the electronic energy
G-E(el)                           ...      0.39830657 Eh    249.94 kcal/mol


Maximum memory used throughout the entire PROP-calculation: 134.7 MB

--------------------------------
SUGGESTED CITATIONS FOR THIS RUN
--------------------------------

Below you find a list of papers that are relevant to this ORCA run
We neither can nor want to force you to cite these papers, but we appreciate if you do
You receive ORCA, which is the product of decades of hard work by many enthusiastic individuals, for free
The only thing we kindly ask in return is that you cite our papers,
We deeply appreciate it, if you show your appreciation for ORCA by not just citing the generic ORCA reference.

Please note that relegating all ORCA citations to the supporting information does *not* help us.
SI sections are not indexed - citations you put there will not count into any citation statistics
But we need these citations in order to attract the funding resources that allow us to do what we are doing

Therefore, if you are a happy ORCA user, please consider citing a few of the papers listed below in the main body of your paper

In addition to the list printed below, the program has created the file m1_00_Vitamin_A-GFN1_000-B97-3C-TZ.bibtex that contains the list in bibtex format
You can import this file easily into all common literature databanks and citation aid programs


List of essential papers. We consider these as the minimum necessary citations

  1. Neese,F.
     Software update: the ORCA program system, version 5.0
     WIRES Comput. Molec. Sci., 2022 12(1)e1606
     doi.org/10.1002/wcms.1606

List of papers to cite with high priority. The work reported in these papers was absolutely
necessary for this run to complete.
Our perspective: the developers of density functionals and basis sets usually get cited in chemistry papers
Good! But without the algorithms to do something with them, the functionals or basis sets would not do anything.
Hence, in our opinion, the algorithm design and method developments papers are equally worthy of getting cited

  1. Neese,F.
     An improvement of the resolution of the identity approximation for the formation of the Coulomb matrix
     J. Comp. Chem., 2003 24(14)1740-1747
     doi.org/10.1002/jcc.10318
  2. Bykov,D.; Petrenko,T.; Izsak,R.; Kossmann,S.; Becker,U.; Valeev,E.; Neese,F.
     Efficient implementation of the analytic second derivatives of Hartree-Fock and hybrid DFT energies: a detailed analysis of different approximations
     Molec. Phys., 2015 113 1961-1977
     doi.org/10.1080/00268976.2015.1025114
  3. Neese,F.
     The SHARK Integral Generation and Digestion System
     J. Comp. Chem., 2022  1-16
     doi.org/10.1002/jcc.26942
  4. Grimme,S.; Antony,J.; Ehrlich,S.; Krieg,H.
     A consistent and accurate ab initio parametrization of density functional dispersion correction (DFT-D) for the 94 elements H-Pu
     J. Chem. Phys., 2010 132 154104
     doi.org/10.1063/1.3382344
  5. Grimme,S.; Ehrlich,S.; Goerigk,L.
     Effect of the damping function in dispersion corrected density functional theory
     J. Comput. Chem., 2011 32(7)1456-1465
     doi.org/10.1002/jcc.21759

List of suggested additional citations. These are papers that are important in the 'surrounding' of 
of this run, or papers that preceded the highly important papers. If you like your results we are grateful for a citation.

  1. Neese,F.
     The ORCA program system
     WIRES Comput. Molec. Sci., 2012 2(1)73-78
     doi.org/10.1002/wcms.81
  2. Neese,F.
     Software update: the ORCA program system, version 4.0
     WIRES Comput. Molec. Sci., 2018 8(1)1-6
     doi.org/10.1002/wcms.1327
  3. Neese,F.; Wennmohs,F.; Becker,U.; Riplinger,C.
     The ORCA quantum chemistry program package
     J. Chem. Phys., 2020 152 Art. No. L224108
     doi.org/10.1063/5.0004608

List of optional additional citations

  1. Neese,F.
     Approximate second-order SCF convergence for spin unrestricted wavefunctions
     Chem. Phys. Lett., 2000 325(1-3)93-98
     doi.org/10.1016/s0009-2614(00)00662-x

Timings for individual modules:

Sum of individual times          ...      649.469 sec (=  10.824 min)
Startup calculation              ...       67.006 sec (=   1.117 min)  10.3 %
SCF iterations                   ...      146.262 sec (=   2.438 min)  22.5 %
Property integrals               ...      126.209 sec (=   2.103 min)  19.4 %
SCF Response                     ...      166.707 sec (=   2.778 min)  25.7 %
Property calculations            ...       55.669 sec (=   0.928 min)   8.6 %
SCF Gradient evaluation          ...       87.420 sec (=   1.457 min)  13.5 %
Geometry relaxation              ...        0.196 sec (=   0.003 min)   0.0 %
                             ****ORCA TERMINATED NORMALLY****
TOTAL RUN TIME: 0 days 0 hours 10 minutes 52 seconds 634 msec
