
                                 *****************
                                 * O   R   C   A *
                                 *****************

                                            #,                                       
                                            ###                                      
                                            ####                                     
                                            #####                                    
                                            ######                                   
                                           ########,                                 
                                     ,,################,,,,,                         
                               ,,#################################,,                 
                          ,,##########################################,,             
                       ,#########################################, ''#####,          
                    ,#############################################,,   '####,        
                  ,##################################################,,,,####,       
                ,###########''''           ''''###############################       
              ,#####''   ,,,,##########,,,,          '''####'''          '####       
            ,##' ,,,,###########################,,,                        '##       
           ' ,,###''''                  '''############,,,                           
         ,,##''                                '''############,,,,        ,,,,,,###''
      ,#''                                            '''#######################'''  
     '                                                          ''''####''''         
             ,#######,   #######,   ,#######,      ##                                
            ,#'     '#,  ##    ##  ,#'     '#,    #''#        ,####,   ,####,        
            ##       ##  ##   ,#'  ##            #'  '#       #'       #'  '#        
            ##       ##  #######   ##           ,######,      #####,   #    #        
            '#,     ,#'  ##    ##  '#,     ,#' ,#      #,     #,   #   #,  ,#        
             '#######'   ##     ##  '#######'  #'      '#     '####' # '####'        



                #########################################################
                #                        -***-                          #
                #          Department of theory and spectroscopy        #
                #                                                       #
                #                      Frank Neese                      #
                #                                                       #
                #     Directorship, Architecture, Infrastructure        #
                #                    SHARK, DRIVERS                     #
                #        Core code/Algorithms in most modules           #
                #                                                       #
                #        Max Planck Institute fuer Kohlenforschung      #
                #                Kaiser Wilhelm Platz 1                 #
                #                 D-45470 Muelheim/Ruhr                 #
                #                      Germany                          #
                #                                                       #
                #                  All rights reserved                  #
                #                        -***-                          #
                #########################################################


                         Program Version 6.0.1  -  RELEASE   -


 With contributions from (in alphabetic order):
[Max-Planck-Institut fuer Kohlenforschung]                               
  Daniel Aravena         : Magnetic Suceptibility                        
  Michael Atanasov       : Ab Initio Ligand Field Theory (pilot matlab implementation)
  Alexander A. Auer      : GIAO ZORA, VPT2 properties, NMR spectrum      
  Ute Becker             : All parallelization in ORCA, NUMFREQ, NUMCALC 
  Giovanni Bistoni       : ED, misc. LED, open-shell LED, HFLD           
  Martin Brehm           : Molecular dynamics                            
  Dmytro Bykov           : pre 5.0 version of the SCF Hessian            
  Marcos Casanova-Páez   : Triplet and SCS-CIS(D). UHF-(DLPNO)-IP/EA/STEOM-CCSD. UHF-CVS-IP/STEOM-CCSD   
  Vijay G. Chilkuri      : MRCI spin determinant printing, contributions to CSF-ICE 
  Pauline Colinet        : FMM embedding                                 
  Dipayan Datta          : RHF DLPNO-CCSD density                        
  Achintya Kumar Dutta   : EOM-CC, STEOM-CC                              
  Nicolas Foglia         : Exact transition moments, OPA infrastructure, MCD improvements    
  Dmitry Ganyushin       : Spin-Orbit,Spin-Spin,Magnetic field MRCI      
  Miquel Garcia-Rates    : C-PCM and meta-GGA Hessian, CCSD/C-PCM, Gaussian charge scheme 
  Tiago L. C. Gouveia    : GS-ROHF, GS-ROCIS                             
  Yang Guo               : DLPNO-NEVPT2, F12-NEVPT2, CIM, IAO-localization        
  Andreas Hansen         : Spin unrestricted coupled pair/coupled cluster methods 
  Ingolf Harden          : AUTO-CI MPn and infrastructure                
  Benjamin Helmich-Paris : MC-RPA, TRAH-(SCF,CASSCF), AVAS, COSX integrals, SCF dyn. polar. 
  Lee Huntington         : MR-EOM, pCC                                   
  Robert Izsak           : Overlap fitted RIJCOSX, COSX-SCS-MP3, EOM     
  Riya Kayal             : Wick's Theorem for AUTO-CI, AUTO-CI UHF-CCSDT 
  Emily Kempfer          : AUTO-CI, RHF CISDT and CCSDT                  
  Christian Kollmar      : KDIIS, OOCD, Brueckner-CCSD(T), CCSD density, CASPT2, CASPT2-K, improved NEVPT2 
  Axel Koslowski         : Symmetry handling                             
  Simone Kossmann        : meta-GGA functionals, TD-DFT gradient, OOMP2, (MP2 Hessian; deprecated post 5.0) 
  Lucas Lang             : DCDCAS                                        
  Marvin Lechner         : AUTO-CI (C++ implementation), FIC-MRCC        
  Spencer Leger          : CASSCF response                               
  Dagmar Lenk            : GEPOL surface, SMD, ORCA-2-JSON               
  Dimitrios Liakos       : Extrapolation schemes; Compound Job, initial MDCI parallelization 
  Dimitrios Manganas     : Further ROCIS development; embedding schemes. LFT, Crystal Embedding 
  Dimitrios Pantazis     : SARC Basis sets                               
  Anastasios Papadopoulos: AUTO-CI, single reference methods and gradients 
  Taras Petrenko         : pre 6.0 DFT Hessian and TD-DFT gradient, (ASA, deprecated), ECA, 1-Electron XAS/XES, NRVS 
  Peter Pinski           : DLPNO-MP2, DLPNO-MP2 Gradient                 
  Christoph Reimann      : Effective Core Potentials                     
  Marius Retegan         : Local ZFS, SOC                                
  Christoph Riplinger    : Optimizer, TS searches, QM/MM, DLPNO-CCSD(T), (RO)-DLPNO pert. Triples 
  Michael Roemelt        : Original ROCIS implementation                 
  Masaaki Saitow         : Open-shell DLPNO-CCSD energy and density      
  Barbara Sandhoefer     : DKH picture change effects                    
  Kantharuban Sivalingam : CASSCF convergence/infrastructure, NEVPT2 and variants, FIC-MRCI 
  Bernardo de Souza      : ESD, SOC TD-DFT                               
  Georgi L. Stoychev     : AutoAux, RI-MP2 NMR, DLPNO-MP2 response, X2C  
  Van Anh Tran           : RI-MP2 g-tensors                              
  Willem Van den Heuvel  : Paramagnetic NMR                              
  Zikuan Wang            : NOTCH, Electric field optimization            
  Frank Wennmohs         : Technical directorship and infrastructure     
  Hang Xu                : AUTO-CI-Response properties                   
                                                                         
[FACCTs GmbH]                                                            
  Markus Bursch, Miquel Garcia-Rates, Christoph Riplinger, Bernardo de Souza, Georgi L. Stoychev 
                                                                 
  APM, Basis sets (HGBS, AHGBS, def-TZVP (Ac-Lr), def2-XVPD (La-Lu)), CI-OPT, improved COSX, DLPNO-Multilevel,           
  DOCKER, DRACO, updates on ESD, GOAT, IRC, LR-CPCM, MBIS, meta-GGA TD-DFT gradient, ML-optimized integration grids, 
  MM, NACMEs, nearIR, NEB, NEB-TS, NL-DFT gradient (VV10), 2- and 3-layer-ONIOM, interface openCOSMO-RS, QMMM,   
  Crystal-QMMM, SF, symmetry and pop. for TD-DFT, r2SCAN hybrids, SOLVATOR                                   
                                                                         
[Other institutions]                                                     
  V. Asgeirsson          : NEB                                           
  Christoph Bannwarth    : sTDA-DFT, sTD-DFT, PBEh-3c, B97-3c, D3        
  Sebastian Ehlert       : rSCAN, r2SCAN, r2SCAN-3c, D4, dhf basis sets  
  Marvin Friede          : D4 for Fr, Ra, Ac-Lr                          
  Lars Goerigk           : TD-DFT with DH, B97 family of functionals     
  Stefan Grimme          : VdW corrections, initial TS optimization, DFT functionals, gCP, sTDA/sTD-DF 
  Waldemar Hujo          : DFT-NL                                        
  H. Jonsson             : NEB                                           
  Holger Kruse           : gCP                                           
  Marcel Mueller         : wB97X-3c, vDZP basis set                      
  Hagen Neugebauer       : wr2SCAN                                       
  Tobias Risthaus        : range-separated hybrid DFT                    
  Lukas Wittmann         : regularized MP2, r2SCAN double-hybrids, wr2SCAN        
                                                                         
We gratefully acknowledge several colleagues who have allowed us to      
interface, adapt or use parts of their codes:                            
  Ed Valeev, F. Pavosevic, A. Kumar             : LibInt (2-el integral package), F12 methods 
  Garnet Chan, S. Sharma, J. Yang, R. Olivares  : DMRG                   
  Ulf Ekstrom                                   : XCFun DFT Library      
  Mihaly Kallay                                 : mrcc  (arbitrary order and MRCC methods)
  Frank Weinhold                                : gennbo (NPA and NBO analysis)           
  Simon Mueller                                 : openCOSMO-RS                            
  Christopher J. Cramer and Donald G. Truhlar   : smd solvation model                     
  S Lehtola, MJT Oliveira, MAL Marques          : LibXC Library                           
  Liviu Ungur et al                             : ANISO software                          


 Your calculation uses the libint2 library for the computation of 2-el integrals
 For citations please refer to: http://libint.valeyev.net

 Your ORCA version has been built with support for libXC version: 6.2.2
 For citations please refer to: https://libxc.gitlab.io

 This ORCA versions uses:
   CBLAS   interface :  Fast vector & matrix operations
   LAPACKE interface :  Fast linear algebra routines
   SCALAPACK package :  Parallel linear algebra routines
   Shared memory     :  Shared parallel matrices
   BLAS/LAPACK       :  OpenBLAS 0.3.27  USE64BITINT DYNAMIC_ARCH NO_AFFINITY Zen SINGLE_THREADED
        Core in use  :  Zen
   Copyright (c) 2011-2014, The OpenBLAS Project


NOTE: MaxCore=6000 MB was set to SCF,MP2,MDCI,CIPSI,MRCI and CIS
      => If you want to overwrite this, your respective input block should be placed after the MaxCore statement
Your calculation utilizes the atom-pairwise dispersion correction
with the Becke-Johnson damping scheme (D3BJ)


Your calculation employs the composite approach B97-3c by Grimme and coworkers.
For the correct reference, please check the publication list of the Grimme group:
http://www.thch.uni-bonn.de/tc/index.php?section=publikationen&subsection=grimme#2017
   

XCFun DFT library Copyright 2009-2010 Ulf Ekstrom and contributors.
See http://admol.org/xcfun for more information.
This is free software; see the source code for copying conditions.
There is ABSOLUTELY NO WARRANTY; not even for MERCHANTABILITY or FITNESS FOR A PARTICULAR PURPOSE.
For details see the documentation.
Scientific users of this library should cite U. Ekstrom, L. Visscher, R. Bast, A. J. Thorvaldsen and K. Ruud;
J.Chem.Theor.Comp. 2010, DOI: 10.1021/ct100117s
XCFun Version 0.99 

================================================================================

----- Orbital basis set information -----
Your calculation utilizes the basis: def2-mTZVP
----- AuxJ basis set information -----
Your calculation utilizes the basis: def2-mTZVP/J
================================================================================
                                        WARNINGS
                       Please study these warnings very carefully!
================================================================================


WARNING: Geometry Optimization
  ===> : Switching off AutoStart
         For restart on a previous wavefunction, please use MOREAD

================================================================================
                                       INPUT FILE
================================================================================
NAME = m1_00_Vitamin_A-GFN1_001-B97-3C-TZ.inp
|  1> %pal nprocs 16 end
|  2> %MaxCore 6000
|  3> # put your comments here
|  4> ! B97-3C  OPT  FREQ DEFGRID3 NOTRAH
|  5> %scf MaxIter 800 end
|  6> %output
|  7> Print [P_Hirshfeld] 1
|  8> end
|  9> %geom
| 10> MaxIter 3000
| 11>  TolE 1e-6 #TolE 5e-6 Energy change (a.u.)
| 12>  TolRMSG 3e-5 #TolRMSG 1e-4 RMS gradient (a.u.)
| 13>  TolMaxG 1e-4 #TolMaxG 3e-3 Max. element of gradient (a.u.)
| 14>  TolRMSD 2e-3 #TolRMSD 2e-3 RMS displacement (a.u.)
| 15>  TolMaxD 4e-3 #TolMaxD 4e-3 Max. displacement (a.u.)
| 16> end
| 17> * xyz 0 1
| 18>  O 8.24681493300139 1.22044495696161 1.42733117406849
| 19>  C -4.40754141098414 0.51425240473378 -1.86350187241403
| 20>  C -5.51768708572043 1.53651677603899 -1.56504011811744
| 21>  C -6.23583110602153 1.22148636793572 -0.25627074560852
| 22>  C -3.54944155424959 0.26421552420616 -0.62424596221653
| 23>  C -5.24516501553236 1.30959782118997 0.90175395828568
| 24>  C -3.94647793497695 0.59498846572228 0.61401630017161
| 25>  C -3.53283480305039 1.08313619243062 -2.99514734014988
| 26>  C -5.02943659318677 -0.81529719937184 -2.33046051777001
| 27>  C -2.27187511319541 -0.40347008417639 -0.89811207044741
| 28>  C -3.15038411225438 0.27394292613650 1.85391929414761
| 29>  C -1.08197781665923 -0.00347375213802 -0.40895790527125
| 30>  C 0.19504584168992 -0.62815554385236 -0.67996900818798
| 31>  C 0.20098228510705 -1.86800426566690 -1.53361912353221
| 32>  C 1.31869027159383 -0.06969315244462 -0.15702969977683
| 33>  C 2.66873940995311 -0.52553674540112 -0.30953983932509
| 34>  C 3.71473077370774 0.11808123450974 0.25850649205559
| 35>  C 5.10686803902003 -0.27036926251487 0.15511573157775
| 36>  C 5.44081794288276 -1.49685200635006 -0.65675809926629
| 37>  C 6.04736145775472 0.45976510859272 0.78049086065452
| 38>  C 7.53089930462748 0.19430931385641 0.77665154398162
| 39>  H -6.23357053425221 1.54615190417486 -2.39276051292133
| 40>  H -5.07651480023616 2.53681836009642 -1.49654450187616
| 41>  H -6.67298868580214 0.21906779726008 -0.29555598463681
| 42>  H -7.05100038774036 1.93377365841336 -0.09850432434411
| 43>  H -5.69986395430754 0.89635536525427 1.80818740431286
| 44>  H -5.01939995291131 2.36325381058670 1.11055228681286
| 45>  H -3.02447945464591 1.98758231759226 -2.65961625537391
| 46>  H -2.77974376685499 0.36057088383449 -3.30898228572819
| 47>  H -4.15338634641754 1.33082032092946 -3.85733242129407
| 48>  H -5.69167725492816 -0.64213670159410 -3.17976080702748
| 49>  H -4.25378694650947 -1.51610346191935 -2.63902878953958
| 50>  H -5.60405738642116 -1.27462519849508 -1.52633939528162
| 51>  H -2.31764766247832 -1.23978863253088 -1.59012680209130
| 52>  H -2.61489012734803 1.15903755222441 2.20426301774214
| 53>  H -2.42394973425101 -0.51756410303652 1.67011863809037
| 54>  H -3.81853125241380 -0.04787833116274 2.65524379609244
| 55>  H -1.04287772283105 0.88059452317781 0.22256800329286
| 56>  H 1.19910010523240 -2.28956066748246 -1.63567448227440
| 57>  H -0.44723070126209 -2.62984480876391 -1.09614543253499
| 58>  H -0.17555852280148 -1.63906410038709 -2.53294926608164
| 59>  H 1.19776940665487 0.82762994929259 0.44739783905888
| 60>  H 2.84263715478030 -1.41670606243598 -0.90357972096061
| 61>  H 3.51989441403056 1.00971341680303 0.85079961615427
| 62>  H 4.95039821204136 -2.37487986823881 -0.23232564184907
| 63>  H 6.51320244472417 -1.68455243412284 -0.67918596462798
| 64>  H 5.09192503069003 -1.37832948493413 -1.68430958421979
| 65>  H 5.75091459581635 1.32777708634395 1.36248042868963
| 66>  H 7.89851343291526 0.06474255054743 -0.25731718868874
| 67>  H 7.75415070315543 -0.73126735340023 1.32504366278163
| 68>  H 8.05741598086315 2.07086563157880 1.01189661546918
| 69> *
| 70> 
| 71> 
| 72> 
| 73> 
| 74>                          ****END OF INPUT****
================================================================================

                       *****************************
                       * Geometry Optimization Run *
                       *****************************

Geometry optimization settings:
Update method            Update   .... BFGS
Choice of coordinates    CoordSys .... (2022) Redundant Internals
Initial Hessian          InHess   .... Almloef's Model
Max. no of cycles        MaxIter  .... 3000

Convergence Tolerances:
Energy Change            TolE     ....  1.0000e-06 Eh
Max. Gradient            TolMAXG  ....  1.0000e-04 Eh/bohr
RMS Gradient             TolRMSG  ....  3.0000e-05 Eh/bohr
Max. Displacement        TolMAXD  ....  4.0000e-03 bohr
RMS Displacement         TolRMSD  ....  2.0000e-03 bohr
Strict Convergence                .... False

------------------------------------------------------------------------------
                        ORCA OPTIMIZATION COORDINATE SETUP
------------------------------------------------------------------------------

The optimization will be done in redundant internal coordinates (2022)
Making redundant internal coordinates   ...  (2022 redundants) done
Evaluating the initial hessian          ...  (Almloef) done
Evaluating the coordinates              ...  done
Calculating the B-matrix                .... done
Calculating the G-matrix                .... done
Diagonalizing the G-matrix              .... done
Small eigenvalue found = 9.024e-04
Small eigenvalue found = 3.325e-03
Small eigenvalue found = 5.425e-03
Small eigenvalue found = 7.470e-03
Small eigenvalue found = 1.207e-02
Small eigenvalue found = 1.718e-02
Small eigenvalue found = 2.067e-02
Small eigenvalue found = 2.812e-02
The first mode is                       ....   94
The number of degrees of freedom        ....  147

    -----------------------------------------------------------------
                    Redundant Internal Coordinates


    -----------------------------------------------------------------
         Definition                    Initial Value    Approx d2E/dq
    -----------------------------------------------------------------
      1. B(C   2,C   1)                  1.5384         0.362287   
      2. B(C   3,C   2)                  1.5257         0.379481   
      3. B(C   4,C   1)                  1.5279         0.376409   
      4. B(C   5,C   3)                  1.5265         0.378408   
      5. B(C   6,C   5)                  1.5100         0.402081   
      6. B(C   6,C   4)                  1.3418         0.745915   
      7. B(C   7,C   1)                  1.5393         0.361063   
      8. B(C   8,C   1)                  1.5403         0.359711   
      9. B(C   9,C   4)                  1.4673         0.470331   
     10. B(C  10,C   6)                  1.5080         0.404956   
     11. B(C  11,C   9)                  1.3473         0.731002   
     12. B(C  12,C  11)                  1.4472         0.506335   
     13. B(C  13,C  12)                  1.5053         0.409033   
     14. B(C  14,C  12)                  1.3594         0.699175   
     15. B(C  15,C  14)                  1.4331         0.533366   
     16. B(C  16,C  15)                  1.3532         0.715366   
     17. B(C  17,C  16)                  1.4490         0.503028   
     18. B(C  18,C  17)                  1.5083         0.404598   
     19. B(C  19,C  17)                  1.3449         0.737420   
     20. B(C  20,C  19)                  1.5071         0.406354   
     21. B(C  20,O   0)                  1.4103         0.519433   
     22. B(H  21,C   2)                  1.0944         0.354331   
     23. B(H  22,C   2)                  1.0954         0.353011   
     24. B(H  23,C   3)                  1.0943         0.354456   
     25. B(H  24,C   3)                  1.0940         0.354902   
     26. B(H  25,C   5)                  1.0951         0.353477   
     27. B(H  26,C   5)                  1.0976         0.350167   
     28. B(H  27,C   7)                  1.0904         0.359537   
     29. B(H  28,C   7)                  1.0898         0.360319   
     30. B(H  29,C   7)                  1.0908         0.359073   
     31. B(H  30,C   8)                  1.0908         0.359035   
     32. B(H  31,C   8)                  1.0899         0.360175   
     33. B(H  32,C   8)                  1.0899         0.360293   
     34. B(H  33,C   9)                  1.0865         0.364806   
     35. B(H  34,C  10)                  1.0922         0.357210   
     36. B(H  35,C  10)                  1.0899         0.360177   
     37. B(H  36,C  10)                  1.0918         0.357677   
     38. B(H  37,C  11)                  1.0872         0.363868   
     39. B(H  38,C  13)                  1.0883         0.362376   
     40. B(H  39,C  13)                  1.0918         0.357765   
     41. B(H  40,C  13)                  1.0922         0.357228   
     42. B(H  41,C  14)                  1.0886         0.361900   
     43. B(H  42,C  15)                  1.0850         0.366725   
     44. B(H  43,C  16)                  1.0880         0.362733   
     45. B(H  44,C  18)                  1.0916         0.357992   
     46. B(H  45,C  18)                  1.0889         0.361534   
     47. B(H  46,C  18)                  1.0916         0.357962   
     48. B(H  47,C  19)                  1.0863         0.365034   
     49. B(H  48,C  20)                  1.1050         0.340797   
     50. B(H  49,C  20)                  1.0988         0.348700   
     51. B(H  50,O   0)                  0.9652         0.510057   
     52. A(C  20,O   0,H  50)          110.0522         0.357905   
     53. A(C   2,C   1,C   7)          107.8861         0.359360   
     54. A(C   2,C   1,C   4)          110.8956         0.361919   
     55. A(C   7,C   1,C   8)          109.0001         0.358924   
     56. A(C   4,C   1,C   7)          109.7319         0.361710   
     57. A(C   4,C   1,C   8)          109.3525         0.361479   
     58. A(C   2,C   1,C   8)          109.9409         0.359131   
     59. A(C   1,C   2,H  21)          109.3396         0.321838   
     60. A(H  21,C   2,H  22)          107.6200         0.289200   
     61. A(C   1,C   2,H  22)          109.1664         0.321641   
     62. A(C   1,C   2,C   3)          111.6470         0.362422   
     63. A(C   3,C   2,H  22)          108.9341         0.324095   
     64. A(C   3,C   2,H  21)          110.0414         0.324294   
     65. A(C   2,C   3,C   5)          109.4724         0.365130   
     66. A(C   5,C   3,H  23)          109.8383         0.324162   
     67. A(H  23,C   3,H  24)          107.6943         0.289458   
     68. A(C   5,C   3,H  24)          109.6700         0.324229   
     69. A(C   2,C   3,H  24)          109.8772         0.324380   
     70. A(C   2,C   3,H  23)          110.2661         0.324313   
     71. A(C   1,C   4,C   9)          114.3347         0.378528   
     72. A(C   6,C   4,C   9)          122.8244         0.427002   
     73. A(C   1,C   4,C   6)          122.8180         0.410382   
     74. A(H  25,C   5,H  26)          106.8701         0.288725   
     75. A(C   3,C   5,H  25)          109.6752         0.324015   
     76. A(C   6,C   5,H  26)          108.2792         0.326758   
     77. A(C   3,C   5,H  26)          109.4635         0.323515   
     78. A(C   6,C   5,H  25)          109.6495         0.327265   
     79. A(C   3,C   5,C   6)          112.7238         0.368769   
     80. A(C   4,C   6,C   5)          123.1630         0.415218   
     81. A(C   5,C   6,C  10)          113.4598         0.373095   
     82. A(C   4,C   6,C  10)          123.3724         0.415744   
     83. A(H  28,C   7,H  29)          108.4245         0.290737   
     84. A(H  27,C   7,H  29)          108.6691         0.290638   
     85. A(H  27,C   7,H  28)          108.4443         0.290796   
     86. A(C   1,C   7,H  28)          111.0603         0.322544   
     87. A(C   1,C   7,H  27)          110.1969         0.322429   
     88. A(C   1,C   7,H  29)          109.9832         0.322361   
     89. A(H  30,C   8,H  32)          108.7402         0.290729   
     90. A(C   1,C   8,H  32)          110.6703         0.322342   
     91. A(H  30,C   8,H  31)          108.2818         0.290714   
     92. A(C   1,C   8,H  31)          110.7017         0.322324   
     93. A(C   1,C   8,H  30)          110.1292         0.322157   
     94. A(H  31,C   8,H  32)          108.2464         0.290873   
     95. A(C  11,C   9,H  33)          119.8019         0.363738   
     96. A(C   4,C   9,H  33)          115.6247         0.337641   
     97. A(C   4,C   9,C  11)          124.4803         0.425460   
     98. A(H  34,C  10,H  36)          107.6664         0.290164   
     99. A(C   6,C  10,H  36)          110.0677         0.328288   
    100. A(H  34,C  10,H  35)          108.4098         0.290481   
    101. A(C   6,C  10,H  35)          111.5792         0.328666   
    102. A(C   6,C  10,H  34)          110.4897         0.328218   
    103. A(H  35,C  10,H  36)          108.5162         0.290541   
    104. A(C   9,C  11,C  12)          125.6748         0.431124   
    105. A(C  12,C  11,H  37)          115.3437         0.341680   
    106. A(C   9,C  11,H  37)          118.9536         0.363579   
    107. A(C  13,C  12,C  14)          123.5912         0.411724   
    108. A(C  11,C  12,C  14)          118.6859         0.427695   
    109. A(C  11,C  12,C  13)          117.7228         0.388993   
    110. A(H  39,C  13,H  40)          107.9516         0.290177   
    111. A(H  38,C  13,H  40)          108.1550         0.290761   
    112. A(C  12,C  13,H  40)          110.1738         0.328763   
    113. A(H  38,C  13,H  39)          108.1684         0.290830   
    114. A(C  12,C  13,H  39)          110.1920         0.328845   
    115. A(C  12,C  13,H  38)          112.0764         0.329541   
    116. A(C  12,C  14,C  15)          127.3788         0.431705   
    117. A(C  15,C  14,H  41)          115.2086         0.344358   
    118. A(C  12,C  14,H  41)          117.4125         0.360492   
    119. A(C  14,C  15,C  16)          122.1576         0.433486   
    120. A(C  16,C  15,H  42)          119.7754         0.362722   
    121. A(C  14,C  15,H  42)          118.0670         0.345125   
    122. A(C  15,C  16,C  17)          125.8171         0.428950   
    123. A(C  17,C  16,H  43)          115.5045         0.341127   
    124. A(C  15,C  16,H  43)          118.6784         0.362045   
    125. A(C  18,C  17,C  19)          122.4748         0.414833   
    126. A(C  16,C  17,C  19)          119.5475         0.431294   
    127. A(C  16,C  17,C  18)          117.9772         0.387810   
    128. A(H  45,C  18,H  46)          108.3056         0.290749   
    129. A(H  44,C  18,H  46)          108.0435         0.290300   
    130. A(C  17,C  18,H  46)          110.3424         0.328284   
    131. A(H  44,C  18,H  45)          108.1681         0.290753   
    132. A(C  17,C  18,H  45)          111.6726         0.328822   
    133. A(C  17,C  18,H  44)          110.2004         0.328288   
    134. A(C  17,C  19,C  20)          126.2683         0.415153   
    135. A(C  20,C  19,H  47)          114.2512         0.329581   
    136. A(C  17,C  19,H  47)          119.4783         0.364322   
    137. A(O   0,C  20,C  19)          111.7384         0.387804   
    138. A(H  48,C  20,H  49)          107.4966         0.286892   
    139. A(C  19,C  20,H  49)          110.3107         0.327101   
    140. A(O   0,C  20,H  49)          106.2308         0.338636   
    141. A(C  19,C  20,H  48)          110.5190         0.325869   
    142. A(O   0,C  20,H  48)          110.3748         0.337344   
    143. D(C   3,C   2,C   1,C   7)   -166.7847         0.010521   
    144. D(C   3,C   2,C   1,C   8)     74.4641         0.010521   
    145. D(H  21,C   2,C   1,C   8)    -47.5443         0.010521   
    146. D(C   3,C   2,C   1,C   4)    -46.5894         0.010521   
    147. D(H  21,C   2,C   1,C   7)     71.2069         0.010521   
    148. D(H  21,C   2,C   1,C   4)   -168.5979         0.010521   
    149. D(C   5,C   3,C   2,H  22)    -58.2188         0.011479   
    150. D(H  23,C   3,C   2,H  22)   -179.1670         0.011479   
    151. D(C   5,C   3,C   2,C   1)     62.4168         0.011479   
    152. D(H  23,C   3,C   2,C   1)    -58.5315         0.011479   
    153. D(H  23,C   3,C   2,H  21)     63.0720         0.011479   
    154. D(C   5,C   3,C   2,H  21)   -175.9798         0.011479   
    155. D(C   6,C   4,C   1,C   8)   -104.1247         0.010585   
    156. D(C   6,C   4,C   1,C   7)    136.3658         0.010585   
    157. D(C   6,C   4,C   1,C   2)     17.2754         0.010585   
    158. D(C   9,C   4,C   1,C   2)   -164.4209         0.010585   
    159. D(C   9,C   4,C   1,C   7)    -45.3306         0.010585   
    160. D(H  25,C   5,C   3,C   2)   -168.9075         0.011418   
    161. D(H  25,C   5,C   3,H  23)    -47.7002         0.011418   
    162. D(C   6,C   5,C   3,H  24)   -167.0555         0.011418   
    163. D(C   6,C   5,C   3,C   2)    -46.4336         0.011418   
    164. D(H  25,C   5,C   3,H  24)     70.4706         0.011418   
    165. D(C   6,C   5,C   3,H  23)     74.7737         0.011418   
    166. D(C   4,C   6,C   5,H  26)   -103.0708         0.011993   
    167. D(C   4,C   6,C   5,H  25)    140.6679         0.011993   
    168. D(C   4,C   6,C   5,C   3)     18.1796         0.011993   
    169. D(C  10,C   6,C   4,C   9)     -2.2603         0.039637   
    170. D(C  10,C   6,C   4,C   1)    175.9004         0.039637   
    171. D(C   5,C   6,C   4,C   9)    178.5917         0.039637   
    172. D(C  10,C   6,C   5,C   3)   -161.0447         0.011993   
    173. D(C   5,C   6,C   4,C   1)     -3.2476         0.039637   
    174. D(C  10,C   6,C   5,H  25)    -38.5565         0.011993   
    175. D(H  28,C   7,C   1,C   8)    -55.6721         0.010455   
    176. D(H  28,C   7,C   1,C   4)     64.0530         0.010455   
    177. D(H  28,C   7,C   1,C   2)   -175.0222         0.010455   
    178. D(H  27,C   7,C   1,C   8)   -175.8639         0.010455   
    179. D(H  27,C   7,C   1,C   4)    -56.1388         0.010455   
    180. D(H  27,C   7,C   1,C   2)     64.7860         0.010455   
    181. D(H  31,C   8,C   1,C   7)     56.3586         0.010382   
    182. D(H  31,C   8,C   1,C   4)    -63.6013         0.010382   
    183. D(H  31,C   8,C   1,C   2)    174.4229         0.010382   
    184. D(H  30,C   8,C   1,C   7)    -63.3553         0.010382   
    185. D(H  30,C   8,C   1,C   4)    176.6848         0.010382   
    186. D(H  30,C   8,C   1,C   2)     54.7091         0.010382   
    187. D(H  33,C   9,C   4,C   6)    134.4579         0.015063   
    188. D(H  33,C   9,C   4,C   1)    -43.8456         0.015063   
    189. D(C  11,C   9,C   4,C   6)    -49.0732         0.015063   
    190. D(C  11,C   9,C   4,C   1)    132.6233         0.015063   
    191. D(H  36,C  10,C   6,C   4)   -139.5566         0.012157   
    192. D(H  35,C  10,C   6,C   5)    160.2010         0.012157   
    193. D(H  35,C  10,C   6,C   4)    -19.0215         0.012157   
    194. D(H  34,C  10,C   6,C   5)    -79.1122         0.012157   
    195. D(H  34,C  10,C   6,C   4)    101.6653         0.012157   
    196. D(H  37,C  11,C   9,H  33)    175.4214         0.037924   
    197. D(H  37,C  11,C   9,C   4)     -0.9094         0.037924   
    198. D(C  12,C  11,C   9,H  33)     -2.5613         0.037924   
    199. D(C  12,C  11,C   9,C   4)   -178.8921         0.037924   
    200. D(C  14,C  12,C  11,H  37)     -0.9194         0.017468   
    201. D(C  14,C  12,C  11,C   9)    177.1275         0.017468   
    202. D(C  13,C  12,C  11,H  37)    179.1677         0.017468   
    203. D(C  13,C  12,C  11,C   9)     -2.7854         0.017468   
    204. D(H  38,C  13,C  12,C  14)      3.0624         0.012394   
    205. D(H  38,C  13,C  12,C  11)   -177.0293         0.012394   
    206. D(H  40,C  13,C  12,C  11)     62.4911         0.012394   
    207. D(H  39,C  13,C  12,C  14)    123.5714         0.012394   
    208. D(H  39,C  13,C  12,C  11)    -56.5203         0.012394   
    209. D(H  41,C  14,C  12,C  13)   -179.9541         0.034423   
    210. D(H  41,C  14,C  12,C  11)      0.1384         0.034423   
    211. D(C  15,C  14,C  12,C  13)      0.1780         0.034423   
    212. D(C  15,C  14,C  12,C  11)   -179.7295         0.034423   
    213. D(H  42,C  15,C  14,H  41)   -179.9897         0.019424   
    214. D(H  42,C  15,C  14,C  12)     -0.1193         0.019424   
    215. D(C  16,C  15,C  14,H  41)     -0.0546         0.019424   
    216. D(C  16,C  15,C  14,C  12)    179.8158         0.019424   
    217. D(H  43,C  16,C  15,H  42)   -179.9794         0.036178   
    218. D(H  43,C  16,C  15,C  14)      0.0866         0.036178   
    219. D(C  17,C  16,C  15,H  42)      0.0261         0.036178   
    220. D(C  17,C  16,C  15,C  14)   -179.9079         0.036178   
    221. D(C  19,C  17,C  16,H  43)      0.4102         0.017238   
    222. D(C  19,C  17,C  16,C  15)   -179.5951         0.017238   
    223. D(C  18,C  17,C  16,H  43)   -179.8257         0.017238   
    224. D(C  18,C  17,C  16,C  15)      0.1690         0.017238   
    225. D(H  46,C  18,C  17,C  16)     58.5462         0.012137   
    226. D(H  45,C  18,C  17,C  19)     -1.1801         0.012137   
    227. D(H  45,C  18,C  17,C  16)    179.0632         0.012137   
    228. D(H  44,C  18,C  17,C  19)    119.0671         0.012137   
    229. D(H  44,C  18,C  17,C  16)    -60.6897         0.012137   
    230. D(H  47,C  19,C  17,C  18)   -179.2628         0.038656   
    231. D(H  47,C  19,C  17,C  16)      0.4902         0.038656   
    232. D(C  20,C  19,C  17,C  18)      0.1576         0.038656   
    233. D(C  20,C  19,C  17,C  16)    179.9106         0.038656   
    234. D(H  49,C  20,C  19,C  17)    -67.5707         0.012238   
    235. D(H  48,C  20,C  19,H  47)   -129.3850         0.012238   
    236. D(H  48,C  20,C  19,C  17)     51.1684         0.012238   
    237. D(O   0,C  20,C  19,H  47)     -6.0569         0.012238   
    238. D(O   0,C  20,C  19,C  17)    174.4966         0.012238   
    239. D(H  49,C  20,O   0,H  50)   -177.4281         0.021389   
    240. D(H  48,C  20,O   0,H  50)     66.3311         0.021389   
    241. D(C  19,C  20,O   0,H  50)    -57.0787         0.021389   
    -----------------------------------------------------------------

Number of atoms                         .... 51
Number of degrees of freedom            .... 241


         *************************************************************
         *                GEOMETRY OPTIMIZATION CYCLE   1            *
         *************************************************************
---------------------------------
CARTESIAN COORDINATES (ANGSTROEM)
---------------------------------
  O      8.246815    1.220445    1.427331
  C     -4.407541    0.514252   -1.863502
  C     -5.517687    1.536517   -1.565040
  C     -6.235831    1.221486   -0.256271
  C     -3.549442    0.264216   -0.624246
  C     -5.245165    1.309598    0.901754
  C     -3.946478    0.594988    0.614016
  C     -3.532835    1.083136   -2.995147
  C     -5.029437   -0.815297   -2.330461
  C     -2.271875   -0.403470   -0.898112
  C     -3.150384    0.273943    1.853919
  C     -1.081978   -0.003474   -0.408958
  C      0.195046   -0.628156   -0.679969
  C      0.200982   -1.868004   -1.533619
  C      1.318690   -0.069693   -0.157030
  C      2.668739   -0.525537   -0.309540
  C      3.714731    0.118081    0.258506
  C      5.106868   -0.270369    0.155116
  C      5.440818   -1.496852   -0.656758
  C      6.047361    0.459765    0.780491
  C      7.530899    0.194309    0.776652
  H     -6.233571    1.546152   -2.392761
  H     -5.076515    2.536818   -1.496545
  H     -6.672989    0.219068   -0.295556
  H     -7.051000    1.933774   -0.098504
  H     -5.699864    0.896355    1.808187
  H     -5.019400    2.363254    1.110552
  H     -3.024479    1.987582   -2.659616
  H     -2.779744    0.360571   -3.308982
  H     -4.153386    1.330820   -3.857332
  H     -5.691677   -0.642137   -3.179761
  H     -4.253787   -1.516103   -2.639029
  H     -5.604057   -1.274625   -1.526339
  H     -2.317648   -1.239789   -1.590127
  H     -2.614890    1.159038    2.204263
  H     -2.423950   -0.517564    1.670119
  H     -3.818531   -0.047878    2.655244
  H     -1.042878    0.880595    0.222568
  H      1.199100   -2.289561   -1.635674
  H     -0.447231   -2.629845   -1.096145
  H     -0.175559   -1.639064   -2.532949
  H      1.197769    0.827630    0.447398
  H      2.842637   -1.416706   -0.903580
  H      3.519894    1.009713    0.850800
  H      4.950398   -2.374880   -0.232326
  H      6.513202   -1.684552   -0.679186
  H      5.091925   -1.378329   -1.684310
  H      5.750915    1.327777    1.362480
  H      7.898513    0.064743   -0.257317
  H      7.754151   -0.731267    1.325044
  H      8.057416    2.070866    1.011897

----------------------------
CARTESIAN COORDINATES (A.U.)
----------------------------
  NO LB      ZA    FRAG     MASS         X           Y           Z
   0 O     8.0000    0    15.999   15.584222    2.306307    2.697265
   1 C     6.0000    0    12.011   -8.329046    0.971796   -3.521508
   2 C     6.0000    0    12.011  -10.426917    2.903596   -2.957497
   3 C     6.0000    0    12.011  -11.784013    2.308275   -0.484282
   4 C     6.0000    0    12.011   -6.707472    0.499295   -1.179654
   5 C     6.0000    0    12.011   -9.911925    2.474781    1.704068
   6 C     6.0000    0    12.011   -7.457762    1.124365    1.160323
   7 C     6.0000    0    12.011   -6.676090    2.046831   -5.660008
   8 C     6.0000    0    12.011   -9.504258   -1.540688   -4.403932
   9 C     6.0000    0    12.011   -4.293222   -0.762448   -1.697186
  10 C     6.0000    0    12.011   -5.953363    0.517677    3.503400
  11 C     6.0000    0    12.011   -2.044642   -0.006564   -0.772818
  12 C     6.0000    0    12.011    0.368583   -1.187042   -1.284955
  13 C     6.0000    0    12.011    0.379801   -3.530016   -2.898120
  14 C     6.0000    0    12.011    2.491963   -0.131701   -0.296743
  15 C     6.0000    0    12.011    5.043187   -0.993121   -0.584946
  16 C     6.0000    0    12.011    7.019824    0.223141    0.488506
  17 C     6.0000    0    12.011    9.650582   -0.510924    0.293126
  18 C     6.0000    0    12.011   10.281656   -2.828640   -1.241093
  19 C     6.0000    0    12.011   11.427857    0.868830    1.474914
  20 C     6.0000    0    12.011   14.231337    0.367191    1.467659
  21 H     1.0000    0     1.008  -11.779741    2.921804   -4.521662
  22 H     1.0000    0     1.008   -9.593223    4.793892   -2.828059
  23 H     1.0000    0     1.008  -12.610121    0.413978   -0.558520
  24 H     1.0000    0     1.008  -13.324460    3.654303   -0.186146
  25 H     1.0000    0     1.008  -10.771182    1.693866    3.416979
  26 H     1.0000    0     1.008   -9.485291    4.465902    2.098640
  27 H     1.0000    0     1.008   -5.715438    3.755986   -5.025946
  28 H     1.0000    0     1.008   -5.252954    0.681380   -6.253070
  29 H     1.0000    0     1.008   -7.848763    2.514886   -7.289302
  30 H     1.0000    0     1.008  -10.755711   -1.213463   -6.008877
  31 H     1.0000    0     1.008   -8.038492   -2.865020   -4.987042
  32 H     1.0000    0     1.008  -10.590134   -2.408693   -2.884363
  33 H     1.0000    0     1.008   -4.379719   -2.342861   -3.004904
  34 H     1.0000    0     1.008   -4.941426    2.190264    4.165453
  35 H     1.0000    0     1.008   -4.580601   -0.978054    3.156067
  36 H     1.0000    0     1.008   -7.215978   -0.090477    5.017684
  37 H     1.0000    0     1.008   -1.970753    1.664082    0.420593
  38 H     1.0000    0     1.008    2.265971   -4.326643   -3.090977
  39 H     1.0000    0     1.008   -0.845144   -4.969686   -2.071415
  40 H     1.0000    0     1.008   -0.331758   -3.097382   -4.786580
  41 H     1.0000    0     1.008    2.263456    1.563994    0.845459
  42 H     1.0000    0     1.008    5.371806   -2.677186   -1.707518
  43 H     1.0000    0     1.008    6.651636    1.908082    1.607778
  44 H     1.0000    0     1.008    9.354897   -4.487873   -0.439032
  45 H     1.0000    0     1.008   12.308169   -3.183343   -1.283475
  46 H     1.0000    0     1.008    9.622344   -2.604665   -3.182884
  47 H     1.0000    0     1.008   10.867654    2.509135    2.574715
  48 H     1.0000    0     1.008   14.926027    0.122346   -0.486259
  49 H     1.0000    0     1.008   14.653221   -1.381895    2.503970
  50 H     1.0000    0     1.008   15.226310    3.913369    1.912207

--------------------------------
INTERNAL COORDINATES (ANGSTROEM)
--------------------------------
 O      0   0   0     0.000000000000     0.00000000     0.00000000
 C      1   0   0    13.094312679221     0.00000000     0.00000000
 C      2   1   0     1.538352132236   127.79237622     0.00000000
 C      3   2   1     1.525730075191   111.64697394   268.09823849
 C      2   1   3     1.527942739998    42.46040088   280.30419936
 C      4   3   2     1.526500620985   109.47241865    62.41677501
 C      5   2   1     1.341768257530   122.81799285   140.94736100
 C      2   1   5     1.539273165658    67.39758659   175.32843559
 C      2   1   5     1.540294174467   120.85903147   274.65502238
 C      5   2   1     1.467304579215   114.33471209   319.25102684
 C      7   5   2     1.508043450148   123.37240537   175.90039772
 C     10   5   2     1.347265541479   124.48026454   132.62329182
 C     12  10   5     1.447226237596   125.67477751   181.10792732
 C     13  12  10     1.505316781868   117.72276742   357.21462525
 C     13  12  10     1.359383157080   118.68593611   177.12754363
 C     15  13  12     1.433068525887   127.37881943   180.27051262
 C     16  15  13     1.353151385363   122.15762508   179.81575477
 C     17  16  15     1.449009870036   125.81712259   180.09207518
 C     18  17  16     1.508284315514   117.97723596     0.16899299
 C     18  17  16     1.344885914352   119.54747287   180.40490521
 C      1   2   3     1.410274273328    49.77567214   176.80776675
 H      3   2   1     1.094396180343   109.33962109   146.08982398
 H      3   2   1     1.095412202776   109.16643143    28.59797412
 H      4   3   2     1.094300265193   110.26608460   301.46854359
 H      4   3   2     1.093958127952   109.87715922   182.91257352
 H      6   4   3     1.095053443622   109.67516354   191.09251122
 H      6   4   3     1.097614481267   109.46351382    74.14076297
 H      8   2   1     1.090426092141   110.19686549   300.51258842
 H      8   2   1     1.089834440202   111.06025603    60.70438915
 H      8   2   1     1.090777135639   109.98320920   180.73097546
 H      9   2   1     1.090806230908   110.12915452   222.17646471
 H      9   2   1     1.089943195932   110.70172369   341.89030422
 H      9   2   1     1.089854139978   110.67027192   101.91141055
 H     10   5   2     1.086465935684   115.62466535   316.15438590
 H     11   7   5     1.092193677725   110.48967585   101.66532738
 H     11   7   5     1.089941725021   111.57923018   340.97848454
 H     11   7   5     1.091838119856   110.06765161   220.44336419
 H     12  10   5     1.087166273366   118.95355136   359.09064986
 H     14  13  12     1.088285017361   112.07641942   182.97066003
 H     14  13  12     1.091771184415   110.19202035   303.47969041
 H     14  13  12     1.092180073571   110.17382220    62.49106151
 H     15  13  12     1.088642849695   117.41248775     0.13839579
 H     16  15  13     1.085037583798   118.06698107   359.88068303
 H     17  16  15     1.088016682045   118.67842309     0.08659061
 H     19  18  17     1.091598529479   110.20043393   299.31033698
 H     19  18  17     1.088918261175   111.67263799   179.06317448
 H     19  18  17     1.091620770456   110.34241079    58.54621466
 H     20  18  17     1.086295260403   119.47828375     0.49023770
 H     21   1   2     1.104997300273   110.37480929   115.20897435
 H     21   1   2     1.098757147816   106.23080961   231.44983513
 H      1   2   3     0.965232178994    75.50598878   309.84532889

---------------------------
INTERNAL COORDINATES (A.U.)
---------------------------
 O      0   0   0     0.000000000000     0.00000000     0.00000000
 C      1   0   0    24.744664875661     0.00000000     0.00000000
 C      2   1   0     2.907064227459   127.79237622     0.00000000
 C      3   2   1     2.883211996397   111.64697394   268.09823849
 C      2   1   3     2.887393326909    42.46040088   280.30419936
 C      4   3   2     2.884668116923   109.47241865    62.41677501
 C      5   2   1     2.535574541920   122.81799285   140.94736100
 C      2   1   5     2.908804728387    67.39758659   175.32843559
 C      2   1   5     2.910734155417   120.85903147   274.65502238
 C      5   2   1     2.772803809766   114.33471209   319.25102684
 C      7   5   2     2.849789118834   123.37240537   175.90039772
 C     10   5   2     2.545962903065   124.48026454   132.62329182
 C     12  10   5     2.734861242882   125.67477751   181.10792732
 C     13  12  10     2.844636462526   117.72276742   357.21462525
 C     13  12  10     2.568861877946   118.68593611   177.12754363
 C     15  13  12     2.708107045069   127.37881943   180.27051262
 C     16  15  13     2.557085536072   122.15762508   179.81575477
 C     17  16  15     2.738231819717   125.81712259   180.09207518
 C     18  17  16     2.850244288410   117.97723596     0.16899299
 C     18  17  16     2.541466059494   119.54747287   180.40490521
 C      1   2   3     2.665032150305    49.77567214   176.80776675
 H      3   2   1     2.068109062859   109.33962109   146.08982398
 H      3   2   1     2.070029067003   109.16643143    28.59797412
 H      4   3   2     2.067927809491   110.26608460   301.46854359
 H      4   3   2     2.067281263807   109.87715922   182.91257352
 H      6   4   3     2.069351110452   109.67516354   191.09251122
 H      6   4   3     2.074190770221   109.46351382    74.14076297
 H      8   2   1     2.060606683429   110.19686549   300.51258842
 H      8   2   1     2.059488623297   111.06025603    60.70438915
 H      8   2   1     2.061270059501   109.98320920   180.73097546
 H      9   2   1     2.061325041590   110.12915452   222.17646471
 H      9   2   1     2.059694141843   110.70172369   341.89030422
 H      9   2   1     2.059525850479   110.67027192   101.91141055
 H     10   5   2     2.053123072277   115.62466535   316.15438590
 H     11   7   5     2.063946936101   110.48967585   101.66532738
 H     11   7   5     2.059691362224   111.57923018   340.97848454
 H     11   7   5     2.063275029103   110.06765161   220.44336419
 H     12  10   5     2.054446518698   118.95355136   359.09064986
 H     14  13  12     2.056560638461   112.07641942   182.97066003
 H     14  13  12     2.063148539451   110.19202035   303.47969041
 H     14  13  12     2.063921227976   110.17382220    62.49106151
 H     15  13  12     2.057236843575   117.41248775     0.13839579
 H     16  15  13     2.050423878390   118.06698107   359.88068303
 H     17  16  15     2.056053558202   118.67842309     0.08659061
 H     19  18  17     2.062822268906   110.20043393   299.31033698
 H     19  18  17     2.057757295847   111.67263799   179.06317448
 H     19  18  17     2.062864298262   110.34241079    58.54621466
 H     20  18  17     2.052800542739   119.47828375     0.49023770
 H     21   1   2     2.088142276239   110.37480929   115.20897435
 H     21   1   2     2.076350097061   106.23080961   231.44983513
 H      1   2   3     1.824024473947    75.50598878   309.84532889

---------------------
BASIS SET INFORMATION
---------------------
There are 3 groups of distinct atoms

 Group   1 Type O   : 11s6p2d contracted to 5s3p2d pattern {62111/411/11}
 Group   2 Type C   : 11s6p1d contracted to 5s3p1d pattern {62111/411/1}
 Group   3 Type H   : 5s contracted to 3s pattern {311}

Atom   0O    basis set group =>   1
Atom   1C    basis set group =>   2
Atom   2C    basis set group =>   2
Atom   3C    basis set group =>   2
Atom   4C    basis set group =>   2
Atom   5C    basis set group =>   2
Atom   6C    basis set group =>   2
Atom   7C    basis set group =>   2
Atom   8C    basis set group =>   2
Atom   9C    basis set group =>   2
Atom  10C    basis set group =>   2
Atom  11C    basis set group =>   2
Atom  12C    basis set group =>   2
Atom  13C    basis set group =>   2
Atom  14C    basis set group =>   2
Atom  15C    basis set group =>   2
Atom  16C    basis set group =>   2
Atom  17C    basis set group =>   2
Atom  18C    basis set group =>   2
Atom  19C    basis set group =>   2
Atom  20C    basis set group =>   2
Atom  21H    basis set group =>   3
Atom  22H    basis set group =>   3
Atom  23H    basis set group =>   3
Atom  24H    basis set group =>   3
Atom  25H    basis set group =>   3
Atom  26H    basis set group =>   3
Atom  27H    basis set group =>   3
Atom  28H    basis set group =>   3
Atom  29H    basis set group =>   3
Atom  30H    basis set group =>   3
Atom  31H    basis set group =>   3
Atom  32H    basis set group =>   3
Atom  33H    basis set group =>   3
Atom  34H    basis set group =>   3
Atom  35H    basis set group =>   3
Atom  36H    basis set group =>   3
Atom  37H    basis set group =>   3
Atom  38H    basis set group =>   3
Atom  39H    basis set group =>   3
Atom  40H    basis set group =>   3
Atom  41H    basis set group =>   3
Atom  42H    basis set group =>   3
Atom  43H    basis set group =>   3
Atom  44H    basis set group =>   3
Atom  45H    basis set group =>   3
Atom  46H    basis set group =>   3
Atom  47H    basis set group =>   3
Atom  48H    basis set group =>   3
Atom  49H    basis set group =>   3
Atom  50H    basis set group =>   3
---------------------------------
AUXILIARY/J BASIS SET INFORMATION
---------------------------------
There are 3 groups of distinct atoms

 Group   1 Type O   : 8s3p3d contracted to 6s3p3d pattern {311111/111/111}
 Group   2 Type C   : 8s3p3d contracted to 6s3p3d pattern {311111/111/111}
 Group   3 Type H   : 5s2p contracted to 3s1p pattern {311/2}

Atom   0O    basis set group =>   1
Atom   1C    basis set group =>   2
Atom   2C    basis set group =>   2
Atom   3C    basis set group =>   2
Atom   4C    basis set group =>   2
Atom   5C    basis set group =>   2
Atom   6C    basis set group =>   2
Atom   7C    basis set group =>   2
Atom   8C    basis set group =>   2
Atom   9C    basis set group =>   2
Atom  10C    basis set group =>   2
Atom  11C    basis set group =>   2
Atom  12C    basis set group =>   2
Atom  13C    basis set group =>   2
Atom  14C    basis set group =>   2
Atom  15C    basis set group =>   2
Atom  16C    basis set group =>   2
Atom  17C    basis set group =>   2
Atom  18C    basis set group =>   2
Atom  19C    basis set group =>   2
Atom  20C    basis set group =>   2
Atom  21H    basis set group =>   3
Atom  22H    basis set group =>   3
Atom  23H    basis set group =>   3
Atom  24H    basis set group =>   3
Atom  25H    basis set group =>   3
Atom  26H    basis set group =>   3
Atom  27H    basis set group =>   3
Atom  28H    basis set group =>   3
Atom  29H    basis set group =>   3
Atom  30H    basis set group =>   3
Atom  31H    basis set group =>   3
Atom  32H    basis set group =>   3
Atom  33H    basis set group =>   3
Atom  34H    basis set group =>   3
Atom  35H    basis set group =>   3
Atom  36H    basis set group =>   3
Atom  37H    basis set group =>   3
Atom  38H    basis set group =>   3
Atom  39H    basis set group =>   3
Atom  40H    basis set group =>   3
Atom  41H    basis set group =>   3
Atom  42H    basis set group =>   3
Atom  43H    basis set group =>   3
Atom  44H    basis set group =>   3
Atom  45H    basis set group =>   3
Atom  46H    basis set group =>   3
Atom  47H    basis set group =>   3
Atom  48H    basis set group =>   3
Atom  49H    basis set group =>   3
Atom  50H    basis set group =>   3


           ************************************************************
           *        Program running with 16 parallel MPI-processes    *
           *              working on a common directory               *
           ************************************************************
------------------------------------------------------------------------------
                             ORCA STARTUP CALCULATIONS
                           -- RI-GTO INTEGRALS CHOSEN --
------------------------------------------------------------------------------
------------------------------------------------------------------------------
                   ___                                                        
                  /   \      - P O W E R E D   B Y -                         
                 /     \                                                     
                 |  |  |   _    _      __       _____    __    __             
                 |  |  |  | |  | |    /  \     |  _  \  |  |  /  |          
                  \  \/   | |  | |   /    \    | | | |  |  | /  /          
                 / \  \   | |__| |  /  /\  \   | |_| |  |  |/  /          
                |  |  |   |  __  | /  /__\  \  |    /   |      \           
                |  |  |   | |  | | |   __   |  |    \   |  |\   \          
                \     /   | |  | | |  |  |  |  | |\  \  |  | \   \       
                 \___/    |_|  |_| |__|  |__|  |_| \__\ |__|  \__/        
                                                                              
                      - O R C A' S   B I G   F R I E N D -                    
                                      &                                       
                       - I N T E G R A L  F E E D E R -                       
                                                                              
 v1 FN, 2020, v2 2021, v3 2022-2024                                           
------------------------------------------------------------------------------


----------------------
SHARK INTEGRAL PACKAGE
----------------------

Number of atoms                             ...     51
Number of basis functions                   ...    494
Number of shells                            ...    280
Maximum angular momentum                    ...      2
Integral batch strategy                     ... SHARK/LIBINT Hybrid
RI-J (if used) integral strategy            ... SPLIT-RIJ (Revised 2003 algorithm where possible)
Printlevel                                  ...      1
Contraction scheme used                     ... SEGMENTED contraction
Prescreening option                         ... SCHWARTZ
   Thresh                                   ... 2.500e-11
   Tcut                                     ... 2.500e-12
   Tpresel                                  ... 2.500e-12 
Coulomb Range Separation                    ... NOT USED
Exchange Range Separation                   ... NOT USED
Multipole approximations                    ... NOT USED
Finite Nucleus Model                        ... NOT USED
CABS basis                                  ... NOT available
Auxiliary Coulomb fitting basis             ... AVAILABLE
   # of basis functions in Aux-J            ...    810
   # of shells in Aux-J                     ...    372
   Maximum angular momentum in Aux-J        ...      2
Auxiliary J/K fitting basis                 ... NOT available
Auxiliary Correlation fitting basis         ... NOT available
Auxiliary 'external' fitting basis          ... NOT available

Checking pre-screening integrals            ... done (  0.0 sec) Dimension = 280
Check shell pair data                       ... done (  0.0 sec)
Shell pair information
Shell pair cut-off parameter TPreSel        ...   2.5e-12
Total number of shell pairs                 ...     39340
Shell pairs after pre-screening             ...     24246
Total number of primitive shell pairs       ...    140737
Primitive shell pairs kept                  ...     55606
          la=0 lb=0:  11234 shell pairs
          la=1 lb=0:   8228 shell pairs
          la=1 lb=1:   1501 shell pairs
          la=2 lb=0:   2293 shell pairs
          la=2 lb=1:    866 shell pairs
          la=2 lb=2:    124 shell pairs

Calculating one electron integrals          ... done (  0.0 sec)
Calculating RI/J V-Matrix + Cholesky decomp.... done (  0.0 sec)
Calculating Nuclear repulsion               ... done (  0.0 sec) ENN=   1559.920718270014 Eh

Diagonalization of the overlap matrix:
Smallest eigenvalue                        ... 2.094e-05
Time for diagonalization                   ...    0.022 sec
Threshold for overlap eigenvalues          ... 1.000e-07
Number of eigenvalues below threshold      ... 0
Time for construction of square roots      ...    0.013 sec
Total time needed                          ...    0.038 sec

-------------------
DFT GRID GENERATION
-------------------

General Integration Accuracy     IntAcc      ... 4.959
Radial Grid Type                 RadialGrid  ... OptM3 with GC (2021)
Angular Grid (max. ang.)         AngularGrid ... 6 (Lebedev-590)
Angular grid pruning method      GridPruning ... 4 (adaptive)
Weight generation scheme         WeightScheme... mBecke (2022)
Basis function cutoff            BFCut       ... 1.0000e-11
Integration weight cutoff        WCut        ... 1.0000e-14
Partially contracted basis set               ... off
Rotationally invariant grid construction     ... off
Angular grids for H and He will be reduced by one unit
Diffuse basis detected: some atoms will have their outermost
                        angular grid increased by 1.

Total number of grid points                  ...   552718
Total number of batches                      ...     8661
Average number of points per batch           ...       63
Average number of grid points per atom       ...    10838
Initializing property integral containers    ... done (  0.0 sec)

SHARK setup successfully completed in   4.2 seconds

Maximum memory used throughout the entire STARTUP-calculation: 123.8 MB


           ************************************************************
           *        Program running with 16 parallel MPI-processes    *
           *              working on a common directory               *
           ************************************************************
-------------------------------------------------------------------------------
                                 ORCA GUESS
                   Start orbitals & Density for SCF / CASSCF
-------------------------------------------------------------------------------

------------
SCF SETTINGS
------------
Hamiltonian:
 Density Functional     Method          .... DFT(GTOs)
 Exchange Functional    Exchange        .... B973C
 Correlation Functional Correlation     .... B973C
 Gradients option       PostSCFGGA      .... off
 RI-approximation to the Coulomb term is turned on
   Number of AuxJ basis functions       .... 810


General Settings:
 Integral files         IntName         .... m1_00_Vitamin_A-GFN1_001-B97-3C-TZ
 Hartree-Fock type      HFTyp           .... RHF
 Total Charge           Charge          ....    0
 Multiplicity           Mult            ....    1
 Number of Electrons    NEL             ....  158
 Basis Dimension        Dim             ....  494
 Nuclear Repulsion      ENuc            ....   1559.9207182700 Eh

Convergence Acceleration:
 AO-DIIS                CNVDIIS         .... on
   Start iteration      DIISMaxIt       ....    12
   Startup error        DIISStart       ....  0.200000
   # of expansion vecs  DIISMaxEq       ....     5
   Bias factor          DIISBfac        ....   1.050
   Max. coefficient     DIISMaxC        ....  10.000
 MO-DIIS                CNVKDIIS        .... off
 Trust-Rad. Augm. Hess. CNVTRAH         .... off
 SOSCF                  CNVSOSCF        .... on
   Start iteration      SOSCFMaxIt      ....   150
   Startup grad/error   SOSCFStart      ....  0.003300
   Hessian update       SOSCFHessUp     .... L-BFGS
 Level Shifting         CNVShift        .... on
   Level shift para.    LevelShift      ....    0.2500
   Turn off err/grad.   ShiftErr        ....    0.0010
 Zerner damping         CNVZerner       .... off
 Static damping         CNVDamp         .... on
   Fraction old density DampFac         ....    0.7000
   Max. Damping (<1)    DampMax         ....    0.9800
   Min. Damping (>=0)   DampMin         ....    0.0000
   Turn off err/grad.   DampErr         ....    0.1000

SCF Procedure:
 Maximum # iterations   MaxIter         ....   800
 SCF integral mode      SCFMode         .... Direct
   Integral package                     .... SHARK and LIBINT hybrid scheme
 Reset frequency        DirectResetFreq ....    20
 Integral Threshold     Thresh          ....  2.500e-11 Eh
 Primitive CutOff       TCut            ....  2.500e-12 Eh

Convergence Tolerance:
 Convergence Check Mode ConvCheckMode   .... Total+1el-Energy
 Convergence forced     ConvForced      .... 0
 Energy Change          TolE            ....  1.000e-08 Eh
 1-El. energy change                    ....  1.000e-05 Eh
 Orbital Gradient       TolG            ....  1.000e-05
 Orbital Rotation angle TolX            ....  1.000e-05
 DIIS Error             TolErr          ....  5.000e-07

--------------------------------
INITIAL GUESS: MINIMAL BASIS EHT
--------------------------------
The minimal basis has 135 functions
EHT matrix was diagonalized
Basis set overlap was calculated now projecting the orbitals
Using GuessMode=FMatrix for the initial guess
C*T matrix was formed
Effective Fockian was calculated
Effective Fockian was diagonalized
Initial density was built
                      ------------------
                      INITIAL GUESS DONE
                      ------------------
             **** ENERGY FILE WAS UPDATED (m1_00_Vitamin_A-GFN1_001-B97-3C-TZ.en.tmp) ****
Finished Guess after   0.3 sec
Maximum memory used throughout the entire GUESS-calculation: 41.4 MB


           ************************************************************
           *        Program running with 16 parallel MPI-processes    *
           *              working on a common directory               *
           ************************************************************

-------------------------------------------------------------------------------------------
                                      ORCA LEAN-SCF
                              memory conserving SCF solver
-------------------------------------------------------------------------------------------

----------------------------------------D-I-I-S--------------------------------------------
Iteration    Energy (Eh)           Delta-E    RMSDP     MaxDP     DIISErr   Damp  Time(sec)
-------------------------------------------------------------------------------------------
               ***  Starting incremental Fock matrix formation  ***
    1    -852.7029554550995272     0.00e+00  4.10e-03  1.34e-01  4.63e-01  0.700   0.8
Warning: op=0 Small HOMO/LUMO gap (   0.080) - skipping pre-diagonalization
         Will do a full diagonalization
    2    -853.3148438599787369    -6.12e-01  4.45e-03  4.85e-01  3.26e-01  0.700   0.9
    3    -853.7272069003179240    -4.12e-01  2.59e-03  1.80e-01  2.28e-01  0.700   0.8
                               ***Turning on AO-DIIS***
    4    -854.0138195298354731    -2.87e-01  1.77e-03  9.58e-02  1.59e-01  0.700   0.8
    5    -854.2109526313229253    -1.97e-01  1.23e-03  4.87e-02  1.11e-01  0.700   0.8
    6    -854.3527543183081434    -1.42e-01  8.85e-04  3.51e-02  7.78e-02  0.700   0.8
    7    -854.4529479452039595    -1.00e-01  2.11e-03  8.34e-02  5.44e-02  0.000   0.8
    8    -854.6849841013413425    -2.32e-01  4.83e-04  6.99e-02  2.09e-02  0.000   0.9
    9    -854.6853965268278444    -4.12e-04  6.10e-05  3.66e-03  1.40e-02  0.000   0.8
                              *** Initializing SOSCF ***
---------------------------------------S-O-S-C-F--------------------------------------
Iteration    Energy (Eh)           Delta-E    RMSDP     MaxDP     MaxGrad    Time(sec)
--------------------------------------------------------------------------------------
   10    -854.6856284974210212    -2.32e-04  4.04e-05  4.57e-03  2.30e-03     0.9
               *** Restarting incremental Fock matrix formation ***
   11    -854.6856420755511863    -1.36e-05  7.17e-05  1.19e-02  1.39e-04     0.9
   12    -854.6856394478359107     2.63e-06  3.67e-05  5.87e-03  2.84e-04     0.8
   13    -854.6856430670959526    -3.62e-06  8.20e-06  7.62e-04  3.64e-05     0.7
   14    -854.6856428860546657     1.81e-07  5.25e-06  6.97e-04  8.99e-05     0.7
   15    -854.6856431023093137    -2.16e-07  3.51e-06  3.07e-04  3.58e-06     0.7
   16    -854.6856431018095464     5.00e-10  3.00e-06  2.54e-04  1.05e-05     0.7
                 **** Energy Check signals convergence ****

               *****************************************************
               *                     SUCCESS                       *
               *           SCF CONVERGED AFTER  16 CYCLES          *
               *****************************************************

             **** ENERGY FILE WAS UPDATED (m1_00_Vitamin_A-GFN1_001-B97-3C-TZ.en.tmp) ****

----------------
TOTAL SCF ENERGY
----------------

Total Energy       :       -854.68564310180955 Eh          -23257.17872 eV

Components:
Nuclear Repulsion  :       1559.92071827001428 Eh           42447.60074 eV
Electronic Energy  :      -2414.60636137182382 Eh          -65704.77946 eV
One Electron Energy:      -4254.13540655120323 Eh         -115760.90958 eV
Two Electron Energy:       1839.52904517937941 Eh           50056.13012 eV

Virial components:
Potential Energy   :      -1705.99710739974739 Eh          -46422.54137 eV
Kinetic Energy     :        851.31146429793785 Eh           23165.36265 eV
Virial Ratio       :          2.00396350683079

DFT components:
N(Alpha)           :       78.999998547352 electrons
N(Beta)            :       78.999998547352 electrons
N(Total)           :      157.999997094703 electrons
E(XC)              :     -127.681773585936 Eh       

---------------
SCF CONVERGENCE
---------------

  Last Energy change         ...   -4.9977e-10  Tolerance :   1.0000e-08
  Last MAX-Density change    ...    2.5403e-04  Tolerance :   1.0000e-07
  Last RMS-Density change    ...    2.9953e-06  Tolerance :   5.0000e-09
  Last DIIS Error            ...    2.2989e-03  Tolerance :   5.0000e-07
  Last Orbital Gradient      ...    1.0467e-05  Tolerance :   1.0000e-05
  Last Orbital Rotation      ...    1.7221e-05  Tolerance :   1.0000e-05


----------------
ORBITAL ENERGIES
----------------

  NO   OCC          E(Eh)            E(eV) 
   0   2.0000     -18.744248      -510.0569 
   1   2.0000      -9.943295      -270.5708 
   2   2.0000      -9.902798      -269.4688 
   3   2.0000      -9.900459      -269.4052 
   4   2.0000      -9.900309      -269.4011 
   5   2.0000      -9.892659      -269.1929 
   6   2.0000      -9.891915      -269.1727 
   7   2.0000      -9.891443      -269.1598 
   8   2.0000      -9.890910      -269.1453 
   9   2.0000      -9.889776      -269.1145 
  10   2.0000      -9.889047      -269.0947 
  11   2.0000      -9.887472      -269.0518 
  12   2.0000      -9.886900      -269.0362 
  13   2.0000      -9.886151      -269.0158 
  14   2.0000      -9.885842      -269.0074 
  15   2.0000      -9.884205      -268.9629 
  16   2.0000      -9.881759      -268.8963 
  17   2.0000      -9.880458      -268.8609 
  18   2.0000      -9.876282      -268.7473 
  19   2.0000      -9.875491      -268.7258 
  20   2.0000      -9.872296      -268.6388 
  21   2.0000      -0.944727       -25.7073 
  22   2.0000      -0.781369       -21.2621 
  23   2.0000      -0.765133       -20.8203 
  24   2.0000      -0.750484       -20.4217 
  25   2.0000      -0.717674       -19.5289 
  26   2.0000      -0.713064       -19.4034 
  27   2.0000      -0.692749       -18.8506 
  28   2.0000      -0.661109       -17.9897 
  29   2.0000      -0.651402       -17.7255 
  30   2.0000      -0.629560       -17.1312 
  31   2.0000      -0.619748       -16.8642 
  32   2.0000      -0.618936       -16.8421 
  33   2.0000      -0.609878       -16.5956 
  34   2.0000      -0.600820       -16.3491 
  35   2.0000      -0.560131       -15.2419 
  36   2.0000      -0.532983       -14.5032 
  37   2.0000      -0.513264       -13.9666 
  38   2.0000      -0.498336       -13.5604 
  39   2.0000      -0.485240       -13.2040 
  40   2.0000      -0.470598       -12.8056 
  41   2.0000      -0.463072       -12.6008 
  42   2.0000      -0.450296       -12.2532 
  43   2.0000      -0.432016       -11.7558 
  44   2.0000      -0.424786       -11.5590 
  45   2.0000      -0.416182       -11.3249 
  46   2.0000      -0.403907       -10.9909 
  47   2.0000      -0.401470       -10.9245 
  48   2.0000      -0.396450       -10.7879 
  49   2.0000      -0.388581       -10.5738 
  50   2.0000      -0.382084       -10.3970 
  51   2.0000      -0.378158       -10.2902 
  52   2.0000      -0.377206       -10.2643 
  53   2.0000      -0.375310       -10.2127 
  54   2.0000      -0.371226       -10.1016 
  55   2.0000      -0.358643        -9.7592 
  56   2.0000      -0.353869        -9.6293 
  57   2.0000      -0.349889        -9.5210 
  58   2.0000      -0.344786        -9.3821 
  59   2.0000      -0.343710        -9.3528 
  60   2.0000      -0.339481        -9.2378 
  61   2.0000      -0.329511        -8.9664 
  62   2.0000      -0.326966        -8.8972 
  63   2.0000      -0.324521        -8.8307 
  64   2.0000      -0.311789        -8.4842 
  65   2.0000      -0.309325        -8.4172 
  66   2.0000      -0.305906        -8.3241 
  67   2.0000      -0.299677        -8.1546 
  68   2.0000      -0.299159        -8.1405 
  69   2.0000      -0.294985        -8.0270 
  70   2.0000      -0.290412        -7.9025 
  71   2.0000      -0.280581        -7.6350 
  72   2.0000      -0.270196        -7.3524 
  73   2.0000      -0.261165        -7.1067 
  74   2.0000      -0.252939        -6.8828 
  75   2.0000      -0.235835        -6.4174 
  76   2.0000      -0.226160        -6.1541 
  77   2.0000      -0.200376        -5.4525 
  78   2.0000      -0.165133        -4.4935 
  79   0.0000      -0.080833        -2.1996 
  80   0.0000      -0.025582        -0.6961 
  81   0.0000       0.005026         0.1368 
  82   0.0000       0.020210         0.5499 
  83   0.0000       0.021007         0.5716 
  84   0.0000       0.028391         0.7725 
  85   0.0000       0.034512         0.9391 
  86   0.0000       0.037391         1.0175 
  87   0.0000       0.041193         1.1209 
  88   0.0000       0.048277         1.3137 
  89   0.0000       0.051634         1.4050 
*Only the first 10 virtual orbitals were printed.

                    ********************************
                    * MULLIKEN POPULATION ANALYSIS *
                    ********************************

-----------------------
MULLIKEN ATOMIC CHARGES
-----------------------
   0 O :   -0.558203
   1 C :   -0.050114
   2 C :   -0.306970
   3 C :   -0.336191
   4 C :    0.311433
   5 C :   -0.305167
   6 C :   -0.015471
   7 C :   -0.450389
   8 C :   -0.553590
   9 C :   -0.346712
  10 C :   -0.581486
  11 C :   -0.348191
  12 C :    0.274154
  13 C :   -0.573849
  14 C :   -0.224861
  15 C :   -0.101180
  16 C :   -0.296398
  17 C :    0.255514
  18 C :   -0.603069
  19 C :   -0.256740
  20 C :   -0.286702
  21 H :    0.174346
  22 H :    0.163999
  23 H :    0.167621
  24 H :    0.172085
  25 H :    0.167971
  26 H :    0.158165
  27 H :    0.168416
  28 H :    0.165478
  29 H :    0.169707
  30 H :    0.169221
  31 H :    0.161954
  32 H :    0.175405
  33 H :    0.176402
  34 H :    0.167778
  35 H :    0.213861
  36 H :    0.154840
  37 H :    0.162528
  38 H :    0.172284
  39 H :    0.181404
  40 H :    0.177958
  41 H :    0.132132
  42 H :    0.152960
  43 H :    0.135479
  44 H :    0.185152
  45 H :    0.190289
  46 H :    0.182810
  47 H :    0.172660
  48 H :    0.175106
  49 H :    0.188134
  50 H :    0.418037
Sum of atomic charges:    0.0000000

--------------------------------
MULLIKEN REDUCED ORBITAL CHARGES
--------------------------------
  0 O s       :     3.808740  s :     3.808740
      pz      :     1.723285  p :     4.720421
      px      :     1.763301
      py      :     1.233835
      dz2     :    -0.001146  d :     0.029042
      dxz     :     0.005784
      dyz     :     0.011247
      dx2y2   :     0.006214
      dxy     :     0.006942

  1 C s       :     3.012096  s :     3.012096
      pz      :     0.992439  p :     2.981798
      px      :     1.020338
      py      :     0.969022
      dz2     :     0.010208  d :     0.056220
      dxz     :     0.014507
      dyz     :     0.009686
      dx2y2   :     0.008505
      dxy     :     0.013315

  2 C s       :     3.161780  s :     3.161780
      pz      :     1.047015  p :     3.100416
      px      :     1.029511
      py      :     1.023890
      dz2     :     0.009711  d :     0.044773
      dxz     :     0.013648
      dyz     :     0.003576
      dx2y2   :     0.007856
      dxy     :     0.009982

  3 C s       :     3.203720  s :     3.203720
      pz      :     0.930745  p :     3.088059
      px      :     1.036181
      py      :     1.121134
      dz2     :     0.012176  d :     0.044412
      dxz     :     0.010635
      dyz     :     0.004192
      dx2y2   :     0.005234
      dxy     :     0.012176

  4 C s       :     3.088357  s :     3.088357
      pz      :     0.798753  p :     2.551750
      px      :     0.907323
      py      :     0.845674
      dz2     :     0.013028  d :     0.048459
      dxz     :     0.014724
      dyz     :     0.008935
      dx2y2   :     0.005301
      dxy     :     0.006472

  5 C s       :     3.137626  s :     3.137626
      pz      :     1.066926  p :     3.121908
      px      :     0.967584
      py      :     1.087398
      dz2     :     0.009663  d :     0.045633
      dxz     :     0.011123
      dyz     :     0.005674
      dx2y2   :     0.010862
      dxy     :     0.008311

  6 C s       :     3.178249  s :     3.178249
      pz      :     0.859977  p :     2.790178
      px      :     0.984997
      py      :     0.945203
      dz2     :     0.012930  d :     0.047044
      dxz     :     0.014053
      dyz     :     0.009351
      dx2y2   :     0.005183
      dxy     :     0.005528

  7 C s       :     3.198341  s :     3.198341
      pz      :     1.045793  p :     3.214223
      px      :     1.066899
      py      :     1.101532
      dz2     :     0.006854  d :     0.037825
      dxz     :     0.010858
      dyz     :     0.005705
      dx2y2   :     0.003017
      dxy     :     0.011391

  8 C s       :     3.264084  s :     3.264084
      pz      :     1.127674  p :     3.251961
      px      :     1.105558
      py      :     1.018728
      dz2     :     0.004811  d :     0.037546
      dxz     :     0.011503
      dyz     :     0.006603
      dx2y2   :     0.003937
      dxy     :     0.010692

  9 C s       :     3.222648  s :     3.222648
      pz      :     1.046141  p :     3.082550
      px      :     1.099817
      py      :     0.936593
      dz2     :     0.004024  d :     0.041514
      dxz     :     0.008337
      dyz     :     0.007329
      dx2y2   :     0.011581
      dxy     :     0.010243

 10 C s       :     3.308578  s :     3.308578
      pz      :     1.027662  p :     3.234778
      px      :     1.086033
      py      :     1.121084
      dz2     :     0.007398  d :     0.038131
      dxz     :     0.011094
      dyz     :     0.006126
      dx2y2   :     0.002469
      dxy     :     0.011044

 11 C s       :     3.333337  s :     3.333337
      pz      :     0.945792  p :     2.972276
      px      :     1.061800
      py      :     0.964684
      dz2     :     0.003866  d :     0.042578
      dxz     :     0.009125
      dyz     :     0.006718
      dx2y2   :     0.012186
      dxy     :     0.010682

 12 C s       :     3.168375  s :     3.168375
      pz      :     0.838610  p :     2.508680
      px      :     0.947187
      py      :     0.722883
      dz2     :     0.006412  d :     0.048791
      dxz     :     0.010066
      dyz     :     0.006188
      dx2y2   :     0.012306
      dxy     :     0.013819

 13 C s       :     3.273174  s :     3.273174
      pz      :     1.070239  p :     3.262915
      px      :     1.173405
      py      :     1.019271
      dz2     :     0.009213  d :     0.037759
      dxz     :     0.004720
      dyz     :     0.008115
      dx2y2   :     0.006381
      dxy     :     0.009330

 14 C s       :     3.266735  s :     3.266735
      pz      :     0.965796  p :     2.916029
      px      :     1.068550
      py      :     0.881684
      dz2     :     0.003702  d :     0.042096
      dxz     :     0.009011
      dyz     :     0.006371
      dx2y2   :     0.012753
      dxy     :     0.010260

 15 C s       :     3.073133  s :     3.073133
      pz      :     0.980529  p :     2.986235
      px      :     1.072578
      py      :     0.933128
      dz2     :     0.003845  d :     0.041812
      dxz     :     0.008885
      dyz     :     0.006512
      dx2y2   :     0.012037
      dxy     :     0.010533

 16 C s       :     3.312194  s :     3.312194
      pz      :     0.980261  p :     2.942360
      px      :     1.026068
      py      :     0.936031
      dz2     :     0.004009  d :     0.041844
      dxz     :     0.008710
      dyz     :     0.006358
      dx2y2   :     0.012452
      dxy     :     0.010316

 17 C s       :     3.113365  s :     3.113365
      pz      :     0.874606  p :     2.581664
      px      :     0.949701
      py      :     0.757358
      dz2     :     0.007190  d :     0.049456
      dxz     :     0.009539
      dyz     :     0.006453
      dx2y2   :     0.013457
      dxy     :     0.012818

 18 C s       :     3.306094  s :     3.306094
      pz      :     1.072753  p :     3.259355
      px      :     1.165700
      py      :     1.020902
      dz2     :     0.010193  d :     0.037620
      dxz     :     0.003894
      dyz     :     0.007427
      dx2y2   :     0.009785
      dxy     :     0.006321

 19 C s       :     3.223090  s :     3.223090
      pz      :     1.000025  p :     2.995432
      px      :     0.978509
      py      :     1.016899
      dz2     :     0.003874  d :     0.038217
[...]
114:   1504.77   0.001598    8.08  0.000331  (-0.016891  0.005179 -0.004394)
115:   1509.38   0.001538    7.77  0.000318  (-0.010056  0.008938  0.011705)
116:   1514.69   0.000667    3.37  0.000138  (-0.007502  0.008327  0.003447)
117:   1519.69   0.001666    8.42  0.000342  (-0.007579  0.012711 -0.011091)
118:   1599.49   0.001953    9.87  0.000381  (-0.014103 -0.009845 -0.009228)
119:   1610.00   0.005220   26.38  0.001012  ( 0.031437  0.004772  0.000854)
120:   1643.80   0.001517    7.67  0.000288  ( 0.011743 -0.008039 -0.009244)
121:   1652.84   0.000531    2.68  0.000100  ( 0.008143  0.005819 -0.000295)
122:   1661.49   0.001840    9.30  0.000346  ( 0.018160 -0.003923  0.000584)
123:   2938.21   0.008158   41.23  0.000866  ( 0.010231 -0.020418 -0.018571)
124:   2975.09   0.009514   48.08  0.000998  ( 0.007001 -0.004998 -0.030396)
125:   2975.63   0.006316   31.92  0.000662  (-0.009039  0.022995 -0.007203)
126:   2984.14   0.015118   76.40  0.001581  ( 0.028912 -0.025794  0.008930)
127:   2989.22   0.002693   13.61  0.000281  (-0.006432  0.006136 -0.014216)
128:   2992.78   0.004798   24.25  0.000500  ( 0.011732  0.018645 -0.003872)
129:   2996.86   0.009377   47.39  0.000976  ( 0.018917  0.015994  0.019047)
130:   2997.97   0.010814   54.65  0.001126  (-0.000792  0.000279 -0.033541)
131:   3002.22   0.014948   75.54  0.001554  (-0.034241  0.002158  0.019407)
132:   3002.48   0.004534   22.91  0.000471  ( 0.000418 -0.020342 -0.007568)
133:   3018.35   0.017587   88.88  0.001818  (-0.039279  0.003197 -0.016287)
134:   3020.38   0.005953   30.08  0.000615  ( 0.008811  0.008186  0.021689)
135:   3020.80   0.013830   69.89  0.001429  ( 0.028630  0.014588 -0.019906)
136:   3035.33   0.011860   59.94  0.001219  ( 0.000043 -0.033913 -0.008324)
137:   3042.54   0.003499   17.68  0.000359  (-0.003064 -0.012615  0.013797)
138:   3050.31   0.003537   17.88  0.000362  ( 0.000908  0.010864 -0.015589)
139:   3059.94   0.001894    9.57  0.000193  (-0.003351 -0.013488  0.000177)
140:   3064.54   0.021843  110.38  0.002224  ( 0.039276 -0.006109  0.025384)
141:   3075.98   0.000762    3.85  0.000077  ( 0.003561 -0.005745 -0.005625)
142:   3076.47   0.006876   34.75  0.000698  ( 0.013590 -0.022642 -0.000388)
143:   3079.90   0.006447   32.58  0.000653  ( 0.019281  0.003732 -0.016358)
144:   3082.43   0.000077    0.39  0.000008  ( 0.002636 -0.000812  0.000404)
145:   3089.76   0.007851   39.68  0.000793  ( 0.005612 -0.021470 -0.017335)
146:   3095.36   0.001240    6.27  0.000125  (-0.002604  0.005618  0.009311)
147:   3102.89   0.011117   56.18  0.001118  ( 0.021208 -0.022018 -0.013545)
148:   3108.41   0.001210    6.12  0.000122  ( 0.007653 -0.005224 -0.005970)
149:   3110.20   0.001180    5.96  0.000118  ( 0.000705 -0.006981 -0.008316)
150:   3111.05   0.008413   42.52  0.000844  (-0.028338  0.006329  0.000922)
151:   3131.21   0.007754   39.19  0.000773  ( 0.018991 -0.017114 -0.010921)
152:   3729.07   0.001876    9.48  0.000157  ( 0.002437  0.008345 -0.009022)

* The epsilon (eps) is given for a Dirac delta lineshape.
** The dipole moment derivative (T) already includes vibrational overlap.

The first frequency considered to be a vibration is 6
The total number of vibrations considered is 147


--------------------------
THERMOCHEMISTRY AT 298.15K
--------------------------

Temperature         ...   298.15 K
Pressure            ...     1.00 atm
Total Mass          ...   286.46 AMU
Quasi RRHO          ...     True
Cut-Off Frequency   ...     1.00 cm^-1

Throughout the following assumptions are being made:
  (1) The electronic state is orbitally nondegenerate
  (2) There are no thermally accessible electronically excited states
  (3) Hindered rotations indicated by low frequency modes are not
      treated as such but are treated as vibrations and this may
      cause some error
  (4) All equations used are the standard statistical mechanics
      equations for an ideal gas
  (5) All vibrations are strictly harmonic

freq.      17.02  E(vib)   ...       0.57 
freq.      28.34  E(vib)   ...       0.55 
freq.      33.15  E(vib)   ...       0.55 
freq.      47.40  E(vib)   ...       0.53 
freq.      53.98  E(vib)   ...       0.52 
freq.      70.23  E(vib)   ...       0.50 
freq.      81.19  E(vib)   ...       0.48 
freq.     102.98  E(vib)   ...       0.46 
freq.     106.38  E(vib)   ...       0.45 
freq.     119.32  E(vib)   ...       0.44 
freq.     154.25  E(vib)   ...       0.40 
freq.     167.61  E(vib)   ...       0.38 
freq.     172.77  E(vib)   ...       0.38 
freq.     179.99  E(vib)   ...       0.37 
freq.     192.92  E(vib)   ...       0.36 
freq.     214.08  E(vib)   ...       0.34 
freq.     225.38  E(vib)   ...       0.33 
freq.     242.34  E(vib)   ...       0.31 
freq.     258.80  E(vib)   ...       0.30 
freq.     271.31  E(vib)   ...       0.29 
freq.     274.90  E(vib)   ...       0.28 
freq.     308.97  E(vib)   ...       0.26 
freq.     311.86  E(vib)   ...       0.25 
freq.     319.96  E(vib)   ...       0.25 
freq.     336.26  E(vib)   ...       0.24 
freq.     346.93  E(vib)   ...       0.23 
freq.     352.19  E(vib)   ...       0.23 
freq.     368.65  E(vib)   ...       0.21 
freq.     389.12  E(vib)   ...       0.20 
freq.     412.31  E(vib)   ...       0.19 
freq.     424.25  E(vib)   ...       0.18 
freq.     437.10  E(vib)   ...       0.17 
freq.     476.75  E(vib)   ...       0.15 
freq.     484.21  E(vib)   ...       0.15 
freq.     496.10  E(vib)   ...       0.14 
freq.     520.65  E(vib)   ...       0.13 
freq.     527.64  E(vib)   ...       0.13 
freq.     535.96  E(vib)   ...       0.12 
freq.     581.03  E(vib)   ...       0.11 
freq.     605.53  E(vib)   ...       0.10 
freq.     616.65  E(vib)   ...       0.09 
freq.     645.87  E(vib)   ...       0.09 
freq.     740.63  E(vib)   ...       0.06 
freq.     796.52  E(vib)   ...       0.05 
freq.     802.38  E(vib)   ...       0.05 
freq.     837.48  E(vib)   ...       0.04 
freq.     851.33  E(vib)   ...       0.04 
freq.     856.03  E(vib)   ...       0.04 
freq.     871.45  E(vib)   ...       0.04 
freq.     890.36  E(vib)   ...       0.04 
freq.     895.17  E(vib)   ...       0.03 
freq.     899.91  E(vib)   ...       0.03 
freq.     912.27  E(vib)   ...       0.03 
freq.     937.15  E(vib)   ...       0.03 
freq.     947.81  E(vib)   ...       0.03 
freq.     951.89  E(vib)   ...       0.03 
freq.     968.84  E(vib)   ...       0.03 
freq.     980.02  E(vib)   ...       0.02 
freq.     985.61  E(vib)   ...       0.02 
freq.     990.72  E(vib)   ...       0.02 
freq.    1008.13  E(vib)   ...       0.02 
freq.    1022.82  E(vib)   ...       0.02 
freq.    1025.18  E(vib)   ...       0.02 
freq.    1037.61  E(vib)   ...       0.02 
freq.    1048.81  E(vib)   ...       0.02 
freq.    1049.27  E(vib)   ...       0.02 
freq.    1053.15  E(vib)   ...       0.02 
freq.    1064.66  E(vib)   ...       0.02 
freq.    1081.96  E(vib)   ...       0.02 
freq.    1098.50  E(vib)   ...       0.02 
freq.    1144.79  E(vib)   ...       0.01 
freq.    1156.48  E(vib)   ...       0.01 
freq.    1187.66  E(vib)   ...       0.01 
freq.    1191.45  E(vib)   ...       0.01 
freq.    1200.98  E(vib)   ...       0.01 
freq.    1202.21  E(vib)   ...       0.01 
freq.    1226.42  E(vib)   ...       0.01 
freq.    1230.49  E(vib)   ...       0.01 
freq.    1234.91  E(vib)   ...       0.01 
freq.    1264.59  E(vib)   ...       0.01 
freq.    1282.34  E(vib)   ...       0.01 
freq.    1300.68  E(vib)   ...       0.01 
freq.    1309.07  E(vib)   ...       0.01 
freq.    1332.71  E(vib)   ...       0.01 
freq.    1338.47  E(vib)   ...       0.01 
freq.    1340.64  E(vib)   ...       0.01 
freq.    1348.78  E(vib)   ...       0.01 
freq.    1366.39  E(vib)   ...       0.01 
freq.    1376.11  E(vib)   ...       0.01 
freq.    1383.74  E(vib)   ...       0.00 
freq.    1386.60  E(vib)   ...       0.00 
freq.    1394.87  E(vib)   ...       0.00 
freq.    1397.05  E(vib)   ...       0.00 
freq.    1409.77  E(vib)   ...       0.00 
freq.    1410.39  E(vib)   ...       0.00 
freq.    1418.96  E(vib)   ...       0.00 
freq.    1419.86  E(vib)   ...       0.00 
freq.    1427.56  E(vib)   ...       0.00 
freq.    1475.95  E(vib)   ...       0.00 
freq.    1485.69  E(vib)   ...       0.00 
freq.    1490.16  E(vib)   ...       0.00 
freq.    1492.01  E(vib)   ...       0.00 
freq.    1492.50  E(vib)   ...       0.00 
freq.    1493.99  E(vib)   ...       0.00 
freq.    1496.70  E(vib)   ...       0.00 
freq.    1499.06  E(vib)   ...       0.00 
freq.    1499.54  E(vib)   ...       0.00 
freq.    1501.61  E(vib)   ...       0.00 
freq.    1504.77  E(vib)   ...       0.00 
freq.    1509.38  E(vib)   ...       0.00 
freq.    1514.69  E(vib)   ...       0.00 
freq.    1519.69  E(vib)   ...       0.00 
freq.    1599.49  E(vib)   ...       0.00 
freq.    1610.00  E(vib)   ...       0.00 
freq.    1643.80  E(vib)   ...       0.00 
freq.    1652.84  E(vib)   ...       0.00 
freq.    1661.49  E(vib)   ...       0.00 
freq.    2938.21  E(vib)   ...       0.00 
freq.    2975.09  E(vib)   ...       0.00 
freq.    2975.63  E(vib)   ...       0.00 
freq.    2984.14  E(vib)   ...       0.00 
freq.    2989.22  E(vib)   ...       0.00 
freq.    2992.78  E(vib)   ...       0.00 
freq.    2996.86  E(vib)   ...       0.00 
freq.    2997.97  E(vib)   ...       0.00 
freq.    3002.22  E(vib)   ...       0.00 
freq.    3002.48  E(vib)   ...       0.00 
freq.    3018.35  E(vib)   ...       0.00 
freq.    3020.38  E(vib)   ...       0.00 
freq.    3020.80  E(vib)   ...       0.00 
freq.    3035.33  E(vib)   ...       0.00 
freq.    3042.54  E(vib)   ...       0.00 
freq.    3050.31  E(vib)   ...       0.00 
freq.    3059.94  E(vib)   ...       0.00 
freq.    3064.54  E(vib)   ...       0.00 
freq.    3075.98  E(vib)   ...       0.00 
freq.    3076.47  E(vib)   ...       0.00 
freq.    3079.90  E(vib)   ...       0.00 
freq.    3082.43  E(vib)   ...       0.00 
freq.    3089.76  E(vib)   ...       0.00 
freq.    3095.36  E(vib)   ...       0.00 
freq.    3102.89  E(vib)   ...       0.00 
freq.    3108.41  E(vib)   ...       0.00 
freq.    3110.20  E(vib)   ...       0.00 
freq.    3111.05  E(vib)   ...       0.00 
freq.    3131.21  E(vib)   ...       0.00 
freq.    3729.07  E(vib)   ...       0.00 

------------
INNER ENERGY
------------

The inner energy is: U= E(el) + E(ZPE) + E(vib) + E(rot) + E(trans)
    E(el)   - is the total energy from the electronic structure calculation
              = E(kin-el) + E(nuc-el) + E(el-el) + E(nuc-nuc)
    E(ZPE)  - the the zero temperature vibrational energy from the frequency calculation
    E(vib)  - the the finite temperature correction to E(ZPE) due to population
              of excited vibrational states
    E(rot)  - is the rotational thermal energy
    E(trans)- is the translational thermal energy

Summary of contributions to the inner energy U:
Electronic energy                ...   -854.95840681 Eh
Zero point energy                ...      0.44858232 Eh     281.49 kcal/mol
Thermal vibrational correction   ...      0.02149729 Eh      13.49 kcal/mol
Thermal rotational correction    ...      0.00141627 Eh       0.89 kcal/mol
Thermal translational correction ...      0.00141627 Eh       0.89 kcal/mol
-----------------------------------------------------------------------
Total thermal energy                   -854.48549466 Eh


Summary of corrections to the electronic energy:
(perhaps to be used in another calculation)
Total thermal correction                  0.02432983 Eh      15.27 kcal/mol
Non-thermal (ZPE) correction              0.44858232 Eh     281.49 kcal/mol
-----------------------------------------------------------------------
Total correction                          0.47291215 Eh     296.76 kcal/mol


--------
ENTHALPY
--------

The enthalpy is H = U + kB*T
                kB is Boltzmann's constant
Total thermal energy              ...   -854.48549466 Eh 
Thermal Enthalpy correction       ...      0.00094421 Eh       0.59 kcal/mol
-----------------------------------------------------------------------
Total Enthalpy                    ...   -854.48455045 Eh


Note: Only C1 symmetry has been detected, increase convergence thresholds 
      if your molecule has a higher symmetry. Symmetry factor of 1.0 is   
      used for the rotational entropy correction. 
 

Note: Rotational entropy computed according to Herzberg 
Infrared and Raman Spectra, Chapter V,1, Van Nostrand Reinhold, 1945 
Point Group:  C1, Symmetry Number:   1  
Rotational constants in cm-1:     0.026708     0.002596     0.002502 

Vibrational entropy computed according to the QRRHO of S. Grimme
Chem.Eur.J. 2012 18 9955 using a reference frequency of 100.0 cm-1


-------
ENTROPY
-------

The entropy contributions are T*S = T*(S(el)+S(vib)+S(rot)+S(trans))
     S(el)   - electronic entropy
     S(vib)  - vibrational entropy
     S(rot)  - rotational entropy
     S(trans)- translational entropy
The entropies will be listed as multiplied by the temperature to get
units of energy

Electronic entropy                ...      0.00000000 Eh      0.00 kcal/mol
Vibrational entropy               ...      0.03834263 Eh     24.06 kcal/mol
Rotational entropy                ...      0.01686002 Eh     10.58 kcal/mol
Translational entropy             ...      0.02036176 Eh     12.78 kcal/mol
-----------------------------------------------------------------------
Final entropy term                ...      0.07556442 Eh     47.42 kcal/mol

In case the symmetry of your molecule has not been determined correctly
or in case you have a reason to use a different symmetry number we print 
out the resulting rotational entropy values for sn=1,12:

 non-linear molecules -----------------------------------
|  sn= 1 | S(rot)=       0.01686002 Eh     10.58 kcal/mol|
|  sn= 2 | S(rot)=       0.01620557 Eh     10.17 kcal/mol|
|  sn= 3 | S(rot)=       0.01582274 Eh      9.93 kcal/mol|
|  sn= 4 | S(rot)=       0.01555111 Eh      9.76 kcal/mol|
|  sn= 5 | S(rot)=       0.01534042 Eh      9.63 kcal/mol|
|  sn= 6 | S(rot)=       0.01516828 Eh      9.52 kcal/mol|
|  sn= 7 | S(rot)=       0.01502273 Eh      9.43 kcal/mol|
|  sn= 8 | S(rot)=       0.01489666 Eh      9.35 kcal/mol|
|  sn= 9 | S(rot)=       0.01478545 Eh      9.28 kcal/mol|
|  sn=10 | S(rot)=       0.01468597 Eh      9.22 kcal/mol|
|  sn=11 | S(rot)=       0.01459598 Eh      9.16 kcal/mol|
|  sn=12 | S(rot)=       0.01451382 Eh      9.11 kcal/mol|
 linear molecules ---------------------------------------
|  Dinfh | S(rot)=       0.01098216 Eh      6.89 kcal/mol|
|  Cinfv | S(rot)=       0.01163661 Eh      7.30 kcal/mol|
 --------------------------------------------------------


-------------------
GIBBS FREE ENERGY
-------------------

The Gibbs free energy is G = H - T*S

Total enthalpy                    ...   -854.48455045 Eh 
Total entropy correction          ...     -0.07556442 Eh    -47.42 kcal/mol
-----------------------------------------------------------------------
Final Gibbs free energy         ...   -854.56011487 Eh

For completeness - the Gibbs free energy minus the electronic energy
G-E(el)                           ...      0.39829194 Eh    249.93 kcal/mol


Maximum memory used throughout the entire PROP-calculation: 135.4 MB

--------------------------------
SUGGESTED CITATIONS FOR THIS RUN
--------------------------------

Below you find a list of papers that are relevant to this ORCA run
We neither can nor want to force you to cite these papers, but we appreciate if you do
You receive ORCA, which is the product of decades of hard work by many enthusiastic individuals, for free
The only thing we kindly ask in return is that you cite our papers,
We deeply appreciate it, if you show your appreciation for ORCA by not just citing the generic ORCA reference.

Please note that relegating all ORCA citations to the supporting information does *not* help us.
SI sections are not indexed - citations you put there will not count into any citation statistics
But we need these citations in order to attract the funding resources that allow us to do what we are doing

Therefore, if you are a happy ORCA user, please consider citing a few of the papers listed below in the main body of your paper

In addition to the list printed below, the program has created the file m1_00_Vitamin_A-GFN1_001-B97-3C-TZ.bibtex that contains the list in bibtex format
You can import this file easily into all common literature databanks and citation aid programs


List of essential papers. We consider these as the minimum necessary citations

  1. Neese,F.
     Software update: the ORCA program system, version 5.0
     WIRES Comput. Molec. Sci., 2022 12(1)e1606
     doi.org/10.1002/wcms.1606

List of papers to cite with high priority. The work reported in these papers was absolutely
necessary for this run to complete.
Our perspective: the developers of density functionals and basis sets usually get cited in chemistry papers
Good! But without the algorithms to do something with them, the functionals or basis sets would not do anything.
Hence, in our opinion, the algorithm design and method developments papers are equally worthy of getting cited

  1. Neese,F.
     An improvement of the resolution of the identity approximation for the formation of the Coulomb matrix
     J. Comp. Chem., 2003 24(14)1740-1747
     doi.org/10.1002/jcc.10318
  2. Bykov,D.; Petrenko,T.; Izsak,R.; Kossmann,S.; Becker,U.; Valeev,E.; Neese,F.
     Efficient implementation of the analytic second derivatives of Hartree-Fock and hybrid DFT energies: a detailed analysis of different approximations
     Molec. Phys., 2015 113 1961-1977
     doi.org/10.1080/00268976.2015.1025114
  3. Neese,F.
     The SHARK Integral Generation and Digestion System
     J. Comp. Chem., 2022  1-16
     doi.org/10.1002/jcc.26942
  4. Grimme,S.; Antony,J.; Ehrlich,S.; Krieg,H.
     A consistent and accurate ab initio parametrization of density functional dispersion correction (DFT-D) for the 94 elements H-Pu
     J. Chem. Phys., 2010 132 154104
     doi.org/10.1063/1.3382344
  5. Grimme,S.; Ehrlich,S.; Goerigk,L.
     Effect of the damping function in dispersion corrected density functional theory
     J. Comput. Chem., 2011 32(7)1456-1465
     doi.org/10.1002/jcc.21759

List of suggested additional citations. These are papers that are important in the 'surrounding' of 
of this run, or papers that preceded the highly important papers. If you like your results we are grateful for a citation.

  1. Neese,F.
     The ORCA program system
     WIRES Comput. Molec. Sci., 2012 2(1)73-78
     doi.org/10.1002/wcms.81
  2. Neese,F.
     Software update: the ORCA program system, version 4.0
     WIRES Comput. Molec. Sci., 2018 8(1)1-6
     doi.org/10.1002/wcms.1327
  3. Neese,F.; Wennmohs,F.; Becker,U.; Riplinger,C.
     The ORCA quantum chemistry program package
     J. Chem. Phys., 2020 152 Art. No. L224108
     doi.org/10.1063/5.0004608

List of optional additional citations

  1. Neese,F.
     Approximate second-order SCF convergence for spin unrestricted wavefunctions
     Chem. Phys. Lett., 2000 325(1-3)93-98
     doi.org/10.1016/s0009-2614(00)00662-x

Timings for individual modules:

Sum of individual times          ...      647.585 sec (=  10.793 min)
Startup calculation              ...       66.936 sec (=   1.116 min)  10.3 %
SCF iterations                   ...      146.032 sec (=   2.434 min)  22.6 %
Property integrals               ...      125.719 sec (=   2.095 min)  19.4 %
SCF Response                     ...      165.544 sec (=   2.759 min)  25.6 %
Property calculations            ...       55.633 sec (=   0.927 min)   8.6 %
SCF Gradient evaluation          ...       87.524 sec (=   1.459 min)  13.5 %
Geometry relaxation              ...        0.198 sec (=   0.003 min)   0.0 %
                             ****ORCA TERMINATED NORMALLY****
TOTAL RUN TIME: 0 days 0 hours 10 minutes 50 seconds 769 msec
