
                                 *****************
                                 * O   R   C   A *
                                 *****************

                                            #,                                       
                                            ###                                      
                                            ####                                     
                                            #####                                    
                                            ######                                   
                                           ########,                                 
                                     ,,################,,,,,                         
                               ,,#################################,,                 
                          ,,##########################################,,             
                       ,#########################################, ''#####,          
                    ,#############################################,,   '####,        
                  ,##################################################,,,,####,       
                ,###########''''           ''''###############################       
              ,#####''   ,,,,##########,,,,          '''####'''          '####       
            ,##' ,,,,###########################,,,                        '##       
           ' ,,###''''                  '''############,,,                           
         ,,##''                                '''############,,,,        ,,,,,,###''
      ,#''                                            '''#######################'''  
     '                                                          ''''####''''         
             ,#######,   #######,   ,#######,      ##                                
            ,#'     '#,  ##    ##  ,#'     '#,    #''#        ,####,   ,####,        
            ##       ##  ##   ,#'  ##            #'  '#       #'       #'  '#        
            ##       ##  #######   ##           ,######,      #####,   #    #        
            '#,     ,#'  ##    ##  '#,     ,#' ,#      #,     #,   #   #,  ,#        
             '#######'   ##     ##  '#######'  #'      '#     '####' # '####'        



                #########################################################
                #                        -***-                          #
                #          Department of theory and spectroscopy        #
                #                                                       #
                #                      Frank Neese                      #
                #                                                       #
                #     Directorship, Architecture, Infrastructure        #
                #                    SHARK, DRIVERS                     #
                #        Core code/Algorithms in most modules           #
                #                                                       #
                #        Max Planck Institute fuer Kohlenforschung      #
                #                Kaiser Wilhelm Platz 1                 #
                #                 D-45470 Muelheim/Ruhr                 #
                #                      Germany                          #
                #                                                       #
                #                  All rights reserved                  #
                #                        -***-                          #
                #########################################################


                         Program Version 6.0.1  -  RELEASE   -


 With contributions from (in alphabetic order):
[Max-Planck-Institut fuer Kohlenforschung]                               
  Daniel Aravena         : Magnetic Suceptibility                        
  Michael Atanasov       : Ab Initio Ligand Field Theory (pilot matlab implementation)
  Alexander A. Auer      : GIAO ZORA, VPT2 properties, NMR spectrum      
  Ute Becker             : All parallelization in ORCA, NUMFREQ, NUMCALC 
  Giovanni Bistoni       : ED, misc. LED, open-shell LED, HFLD           
  Martin Brehm           : Molecular dynamics                            
  Dmytro Bykov           : pre 5.0 version of the SCF Hessian            
  Marcos Casanova-Páez   : Triplet and SCS-CIS(D). UHF-(DLPNO)-IP/EA/STEOM-CCSD. UHF-CVS-IP/STEOM-CCSD   
  Vijay G. Chilkuri      : MRCI spin determinant printing, contributions to CSF-ICE 
  Pauline Colinet        : FMM embedding                                 
  Dipayan Datta          : RHF DLPNO-CCSD density                        
  Achintya Kumar Dutta   : EOM-CC, STEOM-CC                              
  Nicolas Foglia         : Exact transition moments, OPA infrastructure, MCD improvements    
  Dmitry Ganyushin       : Spin-Orbit,Spin-Spin,Magnetic field MRCI      
  Miquel Garcia-Rates    : C-PCM and meta-GGA Hessian, CCSD/C-PCM, Gaussian charge scheme 
  Tiago L. C. Gouveia    : GS-ROHF, GS-ROCIS                             
  Yang Guo               : DLPNO-NEVPT2, F12-NEVPT2, CIM, IAO-localization        
  Andreas Hansen         : Spin unrestricted coupled pair/coupled cluster methods 
  Ingolf Harden          : AUTO-CI MPn and infrastructure                
  Benjamin Helmich-Paris : MC-RPA, TRAH-(SCF,CASSCF), AVAS, COSX integrals, SCF dyn. polar. 
  Lee Huntington         : MR-EOM, pCC                                   
  Robert Izsak           : Overlap fitted RIJCOSX, COSX-SCS-MP3, EOM     
  Riya Kayal             : Wick's Theorem for AUTO-CI, AUTO-CI UHF-CCSDT 
  Emily Kempfer          : AUTO-CI, RHF CISDT and CCSDT                  
  Christian Kollmar      : KDIIS, OOCD, Brueckner-CCSD(T), CCSD density, CASPT2, CASPT2-K, improved NEVPT2 
  Axel Koslowski         : Symmetry handling                             
  Simone Kossmann        : meta-GGA functionals, TD-DFT gradient, OOMP2, (MP2 Hessian; deprecated post 5.0) 
  Lucas Lang             : DCDCAS                                        
  Marvin Lechner         : AUTO-CI (C++ implementation), FIC-MRCC        
  Spencer Leger          : CASSCF response                               
  Dagmar Lenk            : GEPOL surface, SMD, ORCA-2-JSON               
  Dimitrios Liakos       : Extrapolation schemes; Compound Job, initial MDCI parallelization 
  Dimitrios Manganas     : Further ROCIS development; embedding schemes. LFT, Crystal Embedding 
  Dimitrios Pantazis     : SARC Basis sets                               
  Anastasios Papadopoulos: AUTO-CI, single reference methods and gradients 
  Taras Petrenko         : pre 6.0 DFT Hessian and TD-DFT gradient, (ASA, deprecated), ECA, 1-Electron XAS/XES, NRVS 
  Peter Pinski           : DLPNO-MP2, DLPNO-MP2 Gradient                 
  Christoph Reimann      : Effective Core Potentials                     
  Marius Retegan         : Local ZFS, SOC                                
  Christoph Riplinger    : Optimizer, TS searches, QM/MM, DLPNO-CCSD(T), (RO)-DLPNO pert. Triples 
  Michael Roemelt        : Original ROCIS implementation                 
  Masaaki Saitow         : Open-shell DLPNO-CCSD energy and density      
  Barbara Sandhoefer     : DKH picture change effects                    
  Kantharuban Sivalingam : CASSCF convergence/infrastructure, NEVPT2 and variants, FIC-MRCI 
  Bernardo de Souza      : ESD, SOC TD-DFT                               
  Georgi L. Stoychev     : AutoAux, RI-MP2 NMR, DLPNO-MP2 response, X2C  
  Van Anh Tran           : RI-MP2 g-tensors                              
  Willem Van den Heuvel  : Paramagnetic NMR                              
  Zikuan Wang            : NOTCH, Electric field optimization            
  Frank Wennmohs         : Technical directorship and infrastructure     
  Hang Xu                : AUTO-CI-Response properties                   
                                                                         
[FACCTs GmbH]                                                            
  Markus Bursch, Miquel Garcia-Rates, Christoph Riplinger, Bernardo de Souza, Georgi L. Stoychev 
                                                                 
  APM, Basis sets (HGBS, AHGBS, def-TZVP (Ac-Lr), def2-XVPD (La-Lu)), CI-OPT, improved COSX, DLPNO-Multilevel,           
  DOCKER, DRACO, updates on ESD, GOAT, IRC, LR-CPCM, MBIS, meta-GGA TD-DFT gradient, ML-optimized integration grids, 
  MM, NACMEs, nearIR, NEB, NEB-TS, NL-DFT gradient (VV10), 2- and 3-layer-ONIOM, interface openCOSMO-RS, QMMM,   
  Crystal-QMMM, SF, symmetry and pop. for TD-DFT, r2SCAN hybrids, SOLVATOR                                   
                                                                         
[Other institutions]                                                     
  V. Asgeirsson          : NEB                                           
  Christoph Bannwarth    : sTDA-DFT, sTD-DFT, PBEh-3c, B97-3c, D3        
  Sebastian Ehlert       : rSCAN, r2SCAN, r2SCAN-3c, D4, dhf basis sets  
  Marvin Friede          : D4 for Fr, Ra, Ac-Lr                          
  Lars Goerigk           : TD-DFT with DH, B97 family of functionals     
  Stefan Grimme          : VdW corrections, initial TS optimization, DFT functionals, gCP, sTDA/sTD-DF 
  Waldemar Hujo          : DFT-NL                                        
  H. Jonsson             : NEB                                           
  Holger Kruse           : gCP                                           
  Marcel Mueller         : wB97X-3c, vDZP basis set                      
  Hagen Neugebauer       : wr2SCAN                                       
  Tobias Risthaus        : range-separated hybrid DFT                    
  Lukas Wittmann         : regularized MP2, r2SCAN double-hybrids, wr2SCAN        
                                                                         
We gratefully acknowledge several colleagues who have allowed us to      
interface, adapt or use parts of their codes:                            
  Ed Valeev, F. Pavosevic, A. Kumar             : LibInt (2-el integral package), F12 methods 
  Garnet Chan, S. Sharma, J. Yang, R. Olivares  : DMRG                   
  Ulf Ekstrom                                   : XCFun DFT Library      
  Mihaly Kallay                                 : mrcc  (arbitrary order and MRCC methods)
  Frank Weinhold                                : gennbo (NPA and NBO analysis)           
  Simon Mueller                                 : openCOSMO-RS                            
  Christopher J. Cramer and Donald G. Truhlar   : smd solvation model                     
  S Lehtola, MJT Oliveira, MAL Marques          : LibXC Library                           
  Liviu Ungur et al                             : ANISO software                          


 Your calculation uses the libint2 library for the computation of 2-el integrals
 For citations please refer to: http://libint.valeyev.net

 Your ORCA version has been built with support for libXC version: 6.2.2
 For citations please refer to: https://libxc.gitlab.io

 This ORCA versions uses:
   CBLAS   interface :  Fast vector & matrix operations
   LAPACKE interface :  Fast linear algebra routines
   SCALAPACK package :  Parallel linear algebra routines
   Shared memory     :  Shared parallel matrices
   BLAS/LAPACK       :  OpenBLAS 0.3.27  USE64BITINT DYNAMIC_ARCH NO_AFFINITY Zen SINGLE_THREADED
        Core in use  :  Zen
   Copyright (c) 2011-2014, The OpenBLAS Project


NOTE: MaxCore=6000 MB was set to SCF,MP2,MDCI,CIPSI,MRCI and CIS
      => If you want to overwrite this, your respective input block should be placed after the MaxCore statement
Your calculation utilizes the atom-pairwise dispersion correction
with the Becke-Johnson damping scheme (D3BJ)


Your calculation employs the composite approach B97-3c by Grimme and coworkers.
For the correct reference, please check the publication list of the Grimme group:
http://www.thch.uni-bonn.de/tc/index.php?section=publikationen&subsection=grimme#2017
   

XCFun DFT library Copyright 2009-2010 Ulf Ekstrom and contributors.
See http://admol.org/xcfun for more information.
This is free software; see the source code for copying conditions.
There is ABSOLUTELY NO WARRANTY; not even for MERCHANTABILITY or FITNESS FOR A PARTICULAR PURPOSE.
For details see the documentation.
Scientific users of this library should cite U. Ekstrom, L. Visscher, R. Bast, A. J. Thorvaldsen and K. Ruud;
J.Chem.Theor.Comp. 2010, DOI: 10.1021/ct100117s
XCFun Version 0.99 

================================================================================

----- Orbital basis set information -----
Your calculation utilizes the basis: def2-mTZVP
----- AuxJ basis set information -----
Your calculation utilizes the basis: def2-mTZVP/J
================================================================================
                                        WARNINGS
                       Please study these warnings very carefully!
================================================================================


WARNING: Geometry Optimization
  ===> : Switching off AutoStart
         For restart on a previous wavefunction, please use MOREAD

================================================================================
                                       INPUT FILE
================================================================================
NAME = m1_00_Vitamin_A-GFN1_003-B97-3C-TZ.inp
|  1> %pal nprocs 16 end
|  2> %MaxCore 6000
|  3> # put your comments here
|  4> ! B97-3C  OPT  FREQ DEFGRID3 NOTRAH
|  5> %scf MaxIter 800 end
|  6> %output
|  7> Print [P_Hirshfeld] 1
|  8> end
|  9> %geom
| 10> MaxIter 3000
| 11>  TolE 1e-6 #TolE 5e-6 Energy change (a.u.)
| 12>  TolRMSG 3e-5 #TolRMSG 1e-4 RMS gradient (a.u.)
| 13>  TolMaxG 1e-4 #TolMaxG 3e-3 Max. element of gradient (a.u.)
| 14>  TolRMSD 2e-3 #TolRMSD 2e-3 RMS displacement (a.u.)
| 15>  TolMaxD 4e-3 #TolMaxD 4e-3 Max. displacement (a.u.)
| 16> end
| 17> * xyz 0 1
| 18>  O 8.48670562665325 0.53022515870076 2.22623093498017
| 19>  C -3.95123474570072 1.28957917763349 -1.84294510499414
| 20>  C -5.06415928462913 2.20786604291680 -1.30940929134256
| 21>  C -5.85574758591789 1.54025828978968 -0.18890224449486
| 22>  C -3.16443495081053 0.66215446436322 -0.69321098587026
| 23>  C -4.92837971764111 1.25616679831701 0.98986256766621
| 24>  C -3.62432639818830 0.62337481993499 0.56666834887904
| 25>  C -3.01020608281271 2.14309201876524 -2.71201083494118
| 26>  C -4.56202027273582 0.17391764083652 -2.71172849275882
| 27>  C -1.88141470632651 0.07109278765565 -1.09011355062800
| 28>  C -2.90050066587128 -0.07074520744796 1.69296895115849
| 29>  C -0.71543364858169 0.27780045797699 -0.44754973844104
| 30>  C 0.56774986283573 -0.27190265232760 -0.82929380762122
| 31>  C 0.60643124085675 -1.20647305093502 -2.00872094707984
| 32>  C 1.66781826292345 0.08078299970087 -0.11279269384189
| 33>  C 3.01971110970594 -0.34260754910683 -0.32916979475326
| 34>  C 4.04064400386142 0.08128600599933 0.45124534395398
| 35>  C 5.43273019401396 -0.29290500827254 0.30391340851452
| 36>  C 5.79540250154635 -1.24604578844274 -0.80734283142870
| 37>  C 6.34917109414427 0.21710115078390 1.14580249439787
| 38>  C 7.82976509036324 -0.06369313847995 1.12870165694467
| 39>  H -5.73393925529647 2.48054550489133 -2.13083432209303
| 40>  H -4.61593561692535 3.13115846882773 -0.92659197685289
| 41>  H -6.30154106242553 0.60617389373958 -0.54422726367660
| 42>  H -6.67009088596337 2.19599775325973 0.13295556885384
| 43>  H -5.43623721980311 0.60651807246647 1.71041515415369
| 44>  H -4.70211492204959 2.19494820342057 1.51163968065791
| 45>  H -2.51092205470143 2.89483009321421 -2.09995164177764
| 46>  H -2.24917210846898 1.52530709356183 -3.18834194362457
| 47>  H -3.58032171642670 2.65002440697998 -3.49160524674649
| 48>  H -5.17616002233554 0.60740897859009 -3.50214720415091
| 49>  H -3.77881248740477 -0.42470523194477 -3.17672177071650
| 50>  H -5.18366499913459 -0.48704953552124 -2.10800516836146
| 51>  H -1.89883570495389 -0.52240979508822 -1.99997099092533
| 52>  H -2.37576738188443 0.65678943200322 2.31605773589342
| 53>  H -2.17341365874821 -0.79120978796862 1.31845707259512
| 54>  H -3.61478729298797 -0.59760174953851 2.32885618288187
| 55>  H -0.70103567034839 0.93535075301284 0.41810684155780
| 56>  H 1.60285398305912 -1.60991326982050 -2.17831386754488
| 57>  H -0.07691236219107 -2.04290100019574 -1.84948490644916
| 58>  H 0.29248338656298 -0.68300763684112 -2.91441756016148
| 59>  H 1.52405677654298 0.76415837896459 0.72236428541545
| 60>  H 3.21614355033617 -1.02371980162471 -1.15064094936446
| 61>  H 3.82366820871955 0.76640408216761 1.26814296346144
| 62>  H 5.24458485058476 -2.18226454731315 -0.69921275228319
| 63>  H 6.86017659205469 -1.47405402394616 -0.81011228284491
| 64>  H 5.53775241793451 -0.81201146301923 -1.77524745849803
| 65>  H 6.03539372384603 0.90954515488991 1.92176594847814
| 66>  H 8.28868606694511 0.36530066244220 0.22723078693410
| 67>  H 8.01760270770060 -1.15245878896129 1.11109788614729
| 68>  H 8.09557723003084 0.22122928100488 3.05279681075291
| 69> *
| 70> 
| 71> 
| 72> 
| 73> 
| 74>                          ****END OF INPUT****
================================================================================

                       *****************************
                       * Geometry Optimization Run *
                       *****************************

Geometry optimization settings:
Update method            Update   .... BFGS
Choice of coordinates    CoordSys .... (2022) Redundant Internals
Initial Hessian          InHess   .... Almloef's Model
Max. no of cycles        MaxIter  .... 3000

Convergence Tolerances:
Energy Change            TolE     ....  1.0000e-06 Eh
Max. Gradient            TolMAXG  ....  1.0000e-04 Eh/bohr
RMS Gradient             TolRMSG  ....  3.0000e-05 Eh/bohr
Max. Displacement        TolMAXD  ....  4.0000e-03 bohr
RMS Displacement         TolRMSD  ....  2.0000e-03 bohr
Strict Convergence                .... False

------------------------------------------------------------------------------
                        ORCA OPTIMIZATION COORDINATE SETUP
------------------------------------------------------------------------------

The optimization will be done in redundant internal coordinates (2022)
Making redundant internal coordinates   ...  (2022 redundants) done
Evaluating the initial hessian          ...  (Almloef) done
Evaluating the coordinates              ...  done
Calculating the B-matrix                .... done
Calculating the G-matrix                .... done
Diagonalizing the G-matrix              .... done
Small eigenvalue found = 8.955e-04
Small eigenvalue found = 3.384e-03
Small eigenvalue found = 5.495e-03
Small eigenvalue found = 7.235e-03
Small eigenvalue found = 1.182e-02
Small eigenvalue found = 1.822e-02
Small eigenvalue found = 2.018e-02
Small eigenvalue found = 2.782e-02
The first mode is                       ....   94
The number of degrees of freedom        ....  147

    -----------------------------------------------------------------
                    Redundant Internal Coordinates


    -----------------------------------------------------------------
         Definition                    Initial Value    Approx d2E/dq
    -----------------------------------------------------------------
      1. B(C   2,C   1)                  1.5383         0.362293   
      2. B(C   3,C   2)                  1.5257         0.379483   
      3. B(C   4,C   1)                  1.5279         0.376411   
      4. B(C   5,C   3)                  1.5265         0.378408   
      5. B(C   6,C   5)                  1.5100         0.402068   
      6. B(C   6,C   4)                  1.3418         0.745958   
      7. B(C   7,C   1)                  1.5393         0.361092   
      8. B(C   8,C   1)                  1.5403         0.359695   
      9. B(C   9,C   4)                  1.4673         0.470306   
     10. B(C  10,C   6)                  1.5081         0.404914   
     11. B(C  11,C   9)                  1.3473         0.730998   
     12. B(C  12,C  11)                  1.4472         0.506336   
     13. B(C  13,C  12)                  1.5053         0.409039   
     14. B(C  14,C  12)                  1.3594         0.699185   
     15. B(C  15,C  14)                  1.4331         0.533361   
     16. B(C  16,C  15)                  1.3532         0.715347   
     17. B(C  17,C  16)                  1.4490         0.503028   
     18. B(C  18,C  17)                  1.5083         0.404609   
     19. B(C  19,C  17)                  1.3449         0.737391   
     20. B(C  20,C  19)                  1.5071         0.406389   
     21. B(C  20,O   0)                  1.4103         0.519428   
     22. B(H  21,C   2)                  1.0944         0.354334   
     23. B(H  22,C   2)                  1.0954         0.353014   
     24. B(H  23,C   3)                  1.0943         0.354451   
     25. B(H  24,C   3)                  1.0940         0.354903   
     26. B(H  25,C   5)                  1.0951         0.353467   
     27. B(H  26,C   5)                  1.0976         0.350167   
     28. B(H  27,C   7)                  1.0904         0.359548   
     29. B(H  28,C   7)                  1.0898         0.360329   
     30. B(H  29,C   7)                  1.0908         0.359083   
     31. B(H  30,C   8)                  1.0908         0.359044   
     32. B(H  31,C   8)                  1.0899         0.360171   
     33. B(H  32,C   8)                  1.0899         0.360281   
     34. B(H  33,C   9)                  1.0865         0.364817   
     35. B(H  34,C  10)                  1.0922         0.357207   
     36. B(H  35,C  10)                  1.0899         0.360170   
     37. B(H  36,C  10)                  1.0918         0.357661   
     38. B(H  37,C  11)                  1.0872         0.363862   
     39. B(H  38,C  13)                  1.0883         0.362364   
     40. B(H  39,C  13)                  1.0918         0.357787   
     41. B(H  40,C  13)                  1.0922         0.357223   
     42. B(H  41,C  14)                  1.0886         0.361892   
     43. B(H  42,C  15)                  1.0850         0.366720   
     44. B(H  43,C  16)                  1.0880         0.362729   
     45. B(H  44,C  18)                  1.0916         0.357985   
     46. B(H  45,C  18)                  1.0889         0.361536   
     47. B(H  46,C  18)                  1.0916         0.357979   
     48. B(H  47,C  19)                  1.0863         0.365024   
     49. B(H  48,C  20)                  1.0988         0.348684   
     50. B(H  49,C  20)                  1.1050         0.340806   
     51. B(H  50,O   0)                  0.9652         0.510060   
     52. A(C  20,O   0,H  50)          110.0511         0.357905   
     53. A(C   2,C   1,C   7)          107.8850         0.359366   
     54. A(C   2,C   1,C   4)          110.8965         0.361921   
     55. A(C   7,C   1,C   8)          109.0019         0.358926   
     56. A(C   4,C   1,C   7)          109.7388         0.361716   
     57. A(C   4,C   1,C   8)          109.3407         0.361476   
     58. A(C   2,C   1,C   8)          109.9444         0.359129   
     59. A(C   1,C   2,H  21)          109.3401         0.321839   
     60. A(H  21,C   2,H  22)          107.6211         0.289201   
     61. A(C   1,C   2,H  22)          109.1667         0.321642   
     62. A(C   1,C   2,C   3)          111.6454         0.362423   
     63. A(C   3,C   2,H  22)          108.9324         0.324096   
     64. A(C   3,C   2,H  21)          110.0430         0.324295   
     65. A(C   2,C   3,C   5)          109.4723         0.365130   
     66. A(C   5,C   3,H  23)          109.8382         0.324161   
     67. A(H  23,C   3,H  24)          107.6943         0.289458   
     68. A(C   5,C   3,H  24)          109.6696         0.324229   
     69. A(C   2,C   3,H  24)          109.8770         0.324380   
     70. A(C   2,C   3,H  23)          110.2669         0.324312   
     71. A(C   1,C   4,C   9)          114.3389         0.378524   
     72. A(C   6,C   4,C   9)          122.8233         0.427002   
     73. A(C   1,C   4,C   6)          122.8149         0.410387   
     74. A(H  25,C   5,H  26)          106.8706         0.288723   
     75. A(C   3,C   5,H  25)          109.6803         0.324013   
     76. A(C   6,C   5,H  26)          108.2781         0.326756   
     77. A(C   3,C   5,H  26)          109.4596         0.323515   
     78. A(C   6,C   5,H  25)          109.6528         0.327262   
     79. A(C   3,C   5,C   6)          112.7201         0.368767   
     80. A(C   4,C   6,C   5)          123.1654         0.415220   
     81. A(C   5,C   6,C  10)          113.4582         0.373087   
     82. A(C   4,C   6,C  10)          123.3717         0.415741   
     83. A(H  28,C   7,H  29)          108.4244         0.290739   
     84. A(H  27,C   7,H  29)          108.6691         0.290640   
     85. A(H  27,C   7,H  28)          108.4445         0.290798   
     86. A(C   1,C   7,H  28)          111.0608         0.322549   
     87. A(C   1,C   7,H  27)          110.1993         0.322435   
     88. A(C   1,C   7,H  29)          109.9802         0.322366   
     89. A(H  30,C   8,H  32)          108.7402         0.290728   
     90. A(C   1,C   8,H  32)          110.6714         0.322337   
     91. A(H  30,C   8,H  31)          108.2821         0.290714   
     92. A(C   1,C   8,H  31)          110.7013         0.322321   
     93. A(C   1,C   8,H  30)          110.1282         0.322156   
     94. A(H  31,C   8,H  32)          108.2464         0.290871   
     95. A(C  11,C   9,H  33)          119.8086         0.363740   
     96. A(C   4,C   9,H  33)          115.6298         0.337640   
     97. A(C   4,C   9,C  11)          124.4667         0.425456   
     98. A(H  34,C  10,H  36)          107.6666         0.290162   
     99. A(C   6,C  10,H  36)          110.0636         0.328280   
    100. A(H  34,C  10,H  35)          108.4117         0.290480   
    101. A(C   6,C  10,H  35)          111.5800         0.328659   
    102. A(C   6,C  10,H  34)          110.4916         0.328212   
    103. A(H  35,C  10,H  36)          108.5154         0.290538   
    104. A(C   9,C  11,C  12)          125.6803         0.431124   
    105. A(C  12,C  11,H  37)          115.3421         0.341679   
    106. A(C   9,C  11,H  37)          118.9483         0.363577   
    107. A(C  13,C  12,C  14)          123.5905         0.411726   
    108. A(C  11,C  12,C  14)          118.6814         0.427696   
    109. A(C  11,C  12,C  13)          117.7279         0.388994   
    110. A(H  39,C  13,H  40)          107.9523         0.290180   
    111. A(H  38,C  13,H  40)          108.1577         0.290759   
    112. A(C  12,C  13,H  40)          110.1683         0.328763   
    113. A(H  38,C  13,H  39)          108.1673         0.290831   
    114. A(C  12,C  13,H  39)          110.1995         0.328849   
    115. A(C  12,C  13,H  38)          112.0724         0.329540   
    116. A(C  12,C  14,C  15)          127.3850         0.431706   
    117. A(C  15,C  14,H  41)          115.2053         0.344356   
    118. A(C  12,C  14,H  41)          117.4094         0.360492   
    119. A(C  14,C  15,C  16)          122.1482         0.433483   
    120. A(C  16,C  15,H  42)          119.7816         0.362720   
    121. A(C  14,C  15,H  42)          118.0701         0.345123   
    122. A(C  15,C  16,C  17)          125.8245         0.428948   
    123. A(C  17,C  16,H  43)          115.5019         0.341126   
    124. A(C  15,C  16,H  43)          118.6735         0.362043   
    125. A(C  18,C  17,C  19)          122.4797         0.414832   
    126. A(C  16,C  17,C  19)          119.5428         0.431291   
    127. A(C  16,C  17,C  18)          117.9768         0.387812   
    128. A(H  45,C  18,H  46)          108.1675         0.290751   
    129. A(H  44,C  18,H  46)          108.0438         0.290301   
    130. A(C  17,C  18,H  46)          110.1976         0.328288   
    131. A(H  44,C  18,H  45)          108.3050         0.290752   
    132. A(C  17,C  18,H  45)          111.6736         0.328824   
    133. A(C  17,C  18,H  44)          110.3450         0.328289   
    134. A(C  17,C  19,C  20)          126.2768         0.415156   
    135. A(C  20,C  19,H  47)          114.2451         0.329584   
    136. A(C  17,C  19,H  47)          119.4754         0.364317   
    137. A(O   0,C  20,C  19)          111.7367         0.387810   
    138. A(H  48,C  20,H  49)          107.4954         0.286891   
    139. A(C  19,C  20,H  49)          110.5341         0.325875   
    140. A(O   0,C  20,H  49)          110.3751         0.337345   
    141. A(C  19,C  20,H  48)          110.2974         0.327104   
    142. A(O   0,C  20,H  48)          106.2309         0.338633   
    143. D(C   3,C   2,C   1,C   7)   -166.7971         0.010521   
    144. D(C   3,C   2,C   1,C   8)     74.4481         0.010521   
    145. D(H  21,C   2,C   1,C   8)    -47.5616         0.010521   
    146. D(C   3,C   2,C   1,C   4)    -46.5936         0.010521   
    147. D(H  21,C   2,C   1,C   7)     71.1931         0.010521   
    148. D(H  21,C   2,C   1,C   4)   -168.6033         0.010521   
    149. D(C   5,C   3,C   2,H  22)    -58.2150         0.011479   
    150. D(H  23,C   3,C   2,H  22)   -179.1635         0.011479   
    151. D(C   5,C   3,C   2,C   1)     62.4187         0.011479   
    152. D(H  23,C   3,C   2,C   1)    -58.5298         0.011479   
    153. D(H  23,C   3,C   2,H  21)     63.0743         0.011479   
    154. D(C   5,C   3,C   2,H  21)   -175.9772         0.011479   
    155. D(C   6,C   4,C   1,C   8)   -104.1077         0.010585   
    156. D(C   6,C   4,C   1,C   7)    136.3836         0.010585   
    157. D(C   6,C   4,C   1,C   2)     17.2895         0.010585   
    158. D(C   9,C   4,C   1,C   2)   -164.4038         0.010585   
    159. D(C   9,C   4,C   1,C   7)    -45.3098         0.010585   
    160. D(H  25,C   5,C   3,C   2)   -168.9201         0.011417   
    161. D(H  25,C   5,C   3,H  23)    -47.7120         0.011417   
    162. D(C   6,C   5,C   3,H  24)   -167.0624         0.011417   
    163. D(C   6,C   5,C   3,C   2)    -46.4410         0.011417   
    164. D(H  25,C   5,C   3,H  24)     70.4585         0.011417   
    165. D(C   6,C   5,C   3,H  23)     74.7672         0.011417   
    166. D(C   4,C   6,C   5,H  26)   -103.0454         0.011992   
    167. D(C   4,C   6,C   5,H  25)    140.6917         0.011992   
    168. D(C   4,C   6,C   5,C   3)     18.1971         0.011992   
    169. D(C  10,C   6,C   4,C   9)     -2.2820         0.039642   
    170. D(C  10,C   6,C   4,C   1)    175.8820         0.039642   
    171. D(C   5,C   6,C   4,C   9)    178.5668         0.039642   
    172. D(C  10,C   6,C   5,C   3)   -161.0303         0.011992   
    173. D(C   5,C   6,C   4,C   1)     -3.2693         0.039642   
    174. D(C  10,C   6,C   5,H  25)    -38.5356         0.011992   
    175. D(H  28,C   7,C   1,C   8)    -55.7010         0.010456   
    176. D(H  28,C   7,C   1,C   4)     64.0149         0.010456   
    177. D(H  28,C   7,C   1,C   2)   -175.0557         0.010456   
    178. D(H  27,C   7,C   1,C   8)   -175.8951         0.010456   
    179. D(H  27,C   7,C   1,C   4)    -56.1791         0.010456   
    180. D(H  27,C   7,C   1,C   2)     64.7503         0.010456   
    181. D(H  31,C   8,C   1,C   7)     56.3007         0.010381   
    182. D(H  31,C   8,C   1,C   4)    -63.6616         0.010381   
    183. D(H  31,C   8,C   1,C   2)    174.3669         0.010381   
    184. D(H  30,C   8,C   1,C   7)    -63.4127         0.010381   
    185. D(H  30,C   8,C   1,C   4)    176.6250         0.010381   
    186. D(H  30,C   8,C   1,C   2)     54.6535         0.010381   
    187. D(H  33,C   9,C   4,C   6)    134.4522         0.015061   
    188. D(H  33,C   9,C   4,C   1)    -43.8543         0.015061   
    189. D(C  11,C   9,C   4,C   6)    -49.1102         0.015061   
    190. D(C  11,C   9,C   4,C   1)    132.5833         0.015061   
    191. D(H  36,C  10,C   6,C   4)   -139.4812         0.012155   
    192. D(H  35,C  10,C   6,C   5)    160.2761         0.012155   
    193. D(H  35,C  10,C   6,C   4)    -18.9494         0.012155   
    194. D(H  34,C  10,C   6,C   5)    -79.0328         0.012155   
    195. D(H  34,C  10,C   6,C   4)    101.7417         0.012155   
    196. D(H  37,C  11,C   9,H  33)    175.3918         0.037924   
    197. D(H  37,C  11,C   9,C   4)     -0.9063         0.037924   
    198. D(C  12,C  11,C   9,H  33)     -2.5409         0.037924   
    199. D(C  12,C  11,C   9,C   4)   -178.8391         0.037924   
    200. D(C  14,C  12,C  11,H  37)     -1.0411         0.017468   
    201. D(C  14,C  12,C  11,C   9)    176.9573         0.017468   
    202. D(C  13,C  12,C  11,H  37)    179.0906         0.017468   
    203. D(C  13,C  12,C  11,C   9)     -2.9109         0.017468   
    204. D(H  38,C  13,C  12,C  14)      3.5086         0.012394   
    205. D(H  38,C  13,C  12,C  11)   -176.6301         0.012394   
    206. D(H  40,C  13,C  12,C  11)     62.8934         0.012394   
    207. D(H  39,C  13,C  12,C  14)    124.0187         0.012394   
    208. D(H  39,C  13,C  12,C  11)    -56.1200         0.012394   
    209. D(H  41,C  14,C  12,C  13)   -179.9690         0.034424   
    210. D(H  41,C  14,C  12,C  11)      0.1710         0.034424   
    211. D(C  15,C  14,C  12,C  13)      0.2142         0.034424   
    212. D(C  15,C  14,C  12,C  11)   -179.6458         0.034424   
    213. D(H  42,C  15,C  14,H  41)   -179.9360         0.019424   
    214. D(H  42,C  15,C  14,C  12)     -0.1158         0.019424   
    215. D(C  16,C  15,C  14,H  41)     -0.0695         0.019424   
    216. D(C  16,C  15,C  14,C  12)    179.7508         0.019424   
    217. D(H  43,C  16,C  15,H  42)    179.8225         0.036176   
    218. D(H  43,C  16,C  15,C  14)     -0.0418         0.036176   
    219. D(C  17,C  16,C  15,H  42)     -0.0478         0.036176   
    220. D(C  17,C  16,C  15,C  14)   -179.9121         0.036176   
    221. D(C  19,C  17,C  16,H  43)     -0.5750         0.017238   
    222. D(C  19,C  17,C  16,C  15)    179.2990         0.017238   
    223. D(C  18,C  17,C  16,H  43)    179.7112         0.017238   
    224. D(C  18,C  17,C  16,C  15)     -0.4148         0.017238   
    225. D(H  46,C  18,C  17,C  16)     61.0459         0.012137   
    226. D(H  45,C  18,C  17,C  19)      1.5862         0.012137   
    227. D(H  45,C  18,C  17,C  16)   -178.7090         0.012137   
    228. D(H  44,C  18,C  17,C  19)    122.1049         0.012137   
    229. D(H  44,C  18,C  17,C  16)    -58.1903         0.012137   
    230. D(H  47,C  19,C  17,C  18)    179.2449         0.038653   
    231. D(H  47,C  19,C  17,C  16)     -0.4555         0.038653   
    232. D(C  20,C  19,C  17,C  18)     -0.1277         0.038653   
    233. D(C  20,C  19,C  17,C  16)   -179.8280         0.038653   
    234. D(H  49,C  20,C  19,C  17)    -50.9780         0.012240   
    235. D(H  48,C  20,C  19,H  47)   -111.6404         0.012240   
    236. D(H  48,C  20,C  19,C  17)     67.7606         0.012240   
    237. D(O   0,C  20,C  19,H  47)      6.2828         0.012240   
    238. D(O   0,C  20,C  19,C  17)   -174.3163         0.012240   
    239. D(H  49,C  20,O   0,H  50)    -66.4199         0.021389   
    240. D(H  48,C  20,O   0,H  50)    177.3405         0.021389   
    241. D(C  19,C  20,O   0,H  50)     57.0083         0.021389   
    -----------------------------------------------------------------

Number of atoms                         .... 51
Number of degrees of freedom            .... 241


         *************************************************************
         *                GEOMETRY OPTIMIZATION CYCLE   1            *
         *************************************************************
---------------------------------
CARTESIAN COORDINATES (ANGSTROEM)
---------------------------------
  O      8.486706    0.530225    2.226231
  C     -3.951235    1.289579   -1.842945
  C     -5.064159    2.207866   -1.309409
  C     -5.855748    1.540258   -0.188902
  C     -3.164435    0.662154   -0.693211
  C     -4.928380    1.256167    0.989863
  C     -3.624326    0.623375    0.566668
  C     -3.010206    2.143092   -2.712011
  C     -4.562020    0.173918   -2.711728
  C     -1.881415    0.071093   -1.090114
  C     -2.900501   -0.070745    1.692969
  C     -0.715434    0.277800   -0.447550
  C      0.567750   -0.271903   -0.829294
  C      0.606431   -1.206473   -2.008721
  C      1.667818    0.080783   -0.112793
  C      3.019711   -0.342608   -0.329170
  C      4.040644    0.081286    0.451245
  C      5.432730   -0.292905    0.303913
  C      5.795403   -1.246046   -0.807343
  C      6.349171    0.217101    1.145802
  C      7.829765   -0.063693    1.128702
  H     -5.733939    2.480546   -2.130834
  H     -4.615936    3.131158   -0.926592
  H     -6.301541    0.606174   -0.544227
  H     -6.670091    2.195998    0.132956
  H     -5.436237    0.606518    1.710415
  H     -4.702115    2.194948    1.511640
  H     -2.510922    2.894830   -2.099952
  H     -2.249172    1.525307   -3.188342
  H     -3.580322    2.650024   -3.491605
  H     -5.176160    0.607409   -3.502147
  H     -3.778812   -0.424705   -3.176722
  H     -5.183665   -0.487050   -2.108005
  H     -1.898836   -0.522410   -1.999971
  H     -2.375767    0.656789    2.316058
  H     -2.173414   -0.791210    1.318457
  H     -3.614787   -0.597602    2.328856
  H     -0.701036    0.935351    0.418107
  H      1.602854   -1.609913   -2.178314
  H     -0.076912   -2.042901   -1.849485
  H      0.292483   -0.683008   -2.914418
  H      1.524057    0.764158    0.722364
  H      3.216144   -1.023720   -1.150641
  H      3.823668    0.766404    1.268143
  H      5.244585   -2.182265   -0.699213
  H      6.860177   -1.474054   -0.810112
  H      5.537752   -0.812011   -1.775247
  H      6.035394    0.909545    1.921766
  H      8.288686    0.365301    0.227231
  H      8.017603   -1.152459    1.111098
  H      8.095577    0.221229    3.052797

----------------------------
CARTESIAN COORDINATES (A.U.)
----------------------------
  NO LB      ZA    FRAG     MASS         X           Y           Z
   0 O     8.0000    0    15.999   16.037549    1.001980    4.206967
   1 C     6.0000    0    12.011   -7.466752    2.436951   -3.482662
   2 C     6.0000    0    12.011   -9.569874    4.172262   -2.474425
   3 C     6.0000    0    12.011  -11.065759    2.910666   -0.356974
   4 C     6.0000    0    12.011   -5.979915    1.251291   -1.309979
   5 C     6.0000    0    12.011   -9.313288    2.373811    1.870569
   6 C     6.0000    0    12.011   -6.848984    1.178008    1.070848
   7 C     6.0000    0    12.011   -5.688465    4.049857   -5.124958
   8 C     6.0000    0    12.011   -8.620969    0.328657   -5.124424
   9 C     6.0000    0    12.011   -3.555359    0.134346   -2.060016
  10 C     6.0000    0    12.011   -5.481152   -0.133689    3.199248
  11 C     6.0000    0    12.011   -1.351974    0.524967   -0.845746
  12 C     6.0000    0    12.011    1.072892   -0.513822   -1.567138
  13 C     6.0000    0    12.011    1.145989   -2.279904   -3.795932
  14 C     6.0000    0    12.011    3.151720    0.152658   -0.213147
  15 C     6.0000    0    12.011    5.706427   -0.647434   -0.622041
  16 C     6.0000    0    12.011    7.635711    0.153608    0.852730
  17 C     6.0000    0    12.011   10.266372   -0.553510    0.574313
  18 C     6.0000    0    12.011   10.951724   -2.354685   -1.525657
  19 C     6.0000    0    12.011   11.998195    0.410262    2.165253
  20 C     6.0000    0    12.011   14.796112   -0.120363    2.132937
  21 H     1.0000    0     1.008  -10.835575    4.687552   -4.026693
  22 H     1.0000    0     1.008   -8.722854    5.917032   -1.751005
  23 H     1.0000    0     1.008  -11.908187    1.145503   -1.028440
  24 H     1.0000    0     1.008  -12.604645    4.149834    0.251250
  25 H     1.0000    0     1.008  -10.273000    1.146153    3.232216
  26 H     1.0000    0     1.008   -8.885709    4.147851    2.856585
  27 H     1.0000    0     1.008   -4.744955    5.470436   -3.968333
  28 H     1.0000    0     1.008   -4.250319    2.882413   -6.025093
  29 H     1.0000    0     1.008   -6.765828    5.007820   -6.598178
  30 H     1.0000    0     1.008   -9.781525    1.147837   -6.618099
  31 H     1.0000    0     1.008   -7.140921   -0.802577   -6.003134
  32 H     1.0000    0     1.008   -9.795707   -0.920390   -3.983552
  33 H     1.0000    0     1.008   -3.588279   -0.987211   -3.779397
  34 H     1.0000    0     1.008   -4.489550    1.241152    4.376715
  35 H     1.0000    0     1.008   -4.107157   -1.495170    2.491523
  36 H     1.0000    0     1.008   -6.830958   -1.129304    4.400900
  37 H     1.0000    0     1.008   -1.324765    1.767557    0.790107
  38 H     1.0000    0     1.008    3.028955   -3.042295   -4.116417
  39 H     1.0000    0     1.008   -0.145343   -3.860523   -3.495020
  40 H     1.0000    0     1.008    0.552713   -1.290697   -5.507451
  41 H     1.0000    0     1.008    2.880050    1.444050    1.365071
  42 H     1.0000    0     1.008    6.077631   -1.934550   -2.174396
  43 H     1.0000    0     1.008    7.225686    1.448294    2.396443
  44 H     1.0000    0     1.008    9.910829   -4.123882   -1.321321
  45 H     1.0000    0     1.008   12.963855   -2.785558   -1.530890
  46 H     1.0000    0     1.008   10.464835   -1.534479   -3.354732
  47 H     1.0000    0     1.008   11.405241    1.718791    3.631611
  48 H     1.0000    0     1.008   15.663347    0.690318    0.429404
  49 H     1.0000    0     1.008   15.151073   -2.177831    2.099671
  50 H     1.0000    0     1.008   15.298424    0.418063    5.768950

--------------------------------
INTERNAL COORDINATES (ANGSTROEM)
--------------------------------
 O      0   0   0     0.000000000000     0.00000000     0.00000000
 C      1   0   0    13.108667852860     0.00000000     0.00000000
 C      2   1   0     1.538347249729   127.83256113     0.00000000
 C      3   2   1     1.525728741555   111.64537290   269.00752287
 C      2   1   3     1.527941174502    41.75820533   281.05474000
 C      4   3   2     1.526501104169   109.47226964    62.41871296
 C      5   2   1     1.341752563747   122.81492249   141.21899280
 C      2   1   5     1.539251232685    68.11840672   175.09518720
 C      2   1   5     1.540306527799   120.62216505   274.88352073
 C      5   2   1     1.467319494636   114.33893307   319.52562814
 C      7   5   2     1.508071400788   123.37165970   175.88195822
 C     10   5   2     1.347266915174   124.46670322   132.58330706
 C     12  10   5     1.447225610541   125.68034356   181.16092081
 C     13  12  10     1.505312743668   117.72792164   357.08907553
 C     13  12  10     1.359379086225   118.68140611   176.95733407
 C     15  13  12     1.433071134243   127.38502441   180.35421813
 C     16  15  13     1.353158345927   122.14821692   179.75076710
 C     17  16  15     1.449009860275   125.82448755   180.08786260
 C     18  17  16     1.508276824819   117.97676893   359.58519790
 C     18  17  16     1.344896813379   119.54284973   179.29900590
 C      1   2   3     1.410276684942    48.76316297   187.67599387
 H      3   2   1     1.094394069444   109.34012695   146.99778890
 H      3   2   1     1.095409720747   109.16669991    29.50425573
 H      4   3   2     1.094304049110   110.26689261   301.47021984
 H      4   3   2     1.093956903308   109.87702451   182.91384511
 H      6   4   3     1.095061066514   109.68028797   191.07986907
 H      6   4   3     1.097614522469   109.45961932    74.12685393
 H      8   2   1     1.090417869094   110.19931524   300.35255654
 H      8   2   1     1.089826705955   111.06082029    60.54657928
 H      8   2   1     1.090770245666   109.98022979   180.57135902
 H      9   2   1     1.090799757639   110.12815865   221.31407202
 H      9   2   1     1.089946112139   110.70128915   341.02744242
 H      9   2   1     1.089863122829   110.67139816   101.04896369
 H     10   5   2     1.086457255754   115.62979247   316.14571865
 H     11   7   5     1.092195634759   110.49163068   101.74170924
 H     11   7   5     1.089946730302   111.58003634   341.05060706
 H     11   7   5     1.091849702610   110.06358500   220.51876312
 H     12  10   5     1.087171102805   118.94825336   359.09369265
 H     14  13  12     1.088294100905   112.07242990   183.36986161
 H     14  13  12     1.091753777537   110.19952081   303.87996560
 H     14  13  12     1.092183890156   110.16831562    62.89339391
 H     15  13  12     1.088648912162   117.40944823     0.17098442
 H     16  15  13     1.085041226000   118.07008928   359.88424364
 H     17  16  15     1.088019758427   118.67353299   359.95820091
 H     19  18  17     1.091603299321   110.34501510   301.80970584
 H     19  18  17     1.088916566655   111.67364841   181.29104231
 H     19  18  17     1.091608321850   110.19763883    61.04588170
 H     20  18  17     1.086303005152   119.47538459   359.54450823
 H     21   1   2     1.098769253963   106.23094970   114.83450730
 H     21   1   2     1.104990273668   110.37512719   231.07409606
 H      1   2   3     0.965231071852    84.25417122    64.55300208

---------------------------
INTERNAL COORDINATES (A.U.)
---------------------------
 O      0   0   0     0.000000000000     0.00000000     0.00000000
 C      1   0   0    24.771792222443     0.00000000     0.00000000
 C      2   1   0     2.907055000859   127.83256113     0.00000000
 C      3   2   1     2.883209476192   111.64537290   269.00752287
 C      2   1   3     2.887390368551    41.75820533   281.05474000
 C      4   3   2     2.884669030007   109.47226964    62.41871296
 C      5   2   1     2.535544884968   122.81492249   141.21899280
 C      2   1   5     2.908763281075    68.11840672   175.09518720
 C      2   1   5     2.910757499831   120.62216505   274.88352073
 C      5   2   1     2.772831995826   114.33893307   319.52562814
 C      7   5   2     2.849841937888   123.37165970   175.88195822
 C     10   5   2     2.545965498971   124.46670322   132.58330706
 C     12  10   5     2.734860057920   125.68034356   181.16092081
 C     13  12  10     2.844628831435   117.72792164   357.08907553
 C     13  12  10     2.568854185145   118.68140611   176.95733407
 C     15  13  12     2.708111974147   127.38502441   180.35421813
 C     16  15  13     2.557098689632   122.14821692   179.75076710
 C     17  16  15     2.738231801272   125.82448755   180.08786260
 C     18  17  16     2.850230133049   117.97676893   359.58519790
 C     18  17  16     2.541486655669   119.54284973   179.29900590
 C      1   2   3     2.665036707596    48.76316297   187.67599387
 H      3   2   1     2.068105073836   109.34012695   146.99778890
 H      3   2   1     2.070024376647   109.16669991    29.50425573
 H      4   3   2     2.067934960058   110.26689261   301.47021984
 H      4   3   2     2.067278949564   109.87702451   182.91384511
 H      6   4   3     2.069365515632   109.68028797   191.07986907
 H      6   4   3     2.074190848081   109.45961932    74.12685393
 H      8   2   1     2.060591144121   110.19931524   300.35255654
 H      8   2   1     2.059474007689   111.06082029    60.54657928
 H      8   2   1     2.061257039339   109.98022979   180.57135902
 H      9   2   1     2.061312808885   110.12815865   221.31407202
 H      9   2   1     2.059699652674   110.70128915   341.02744242
 H      9   2   1     2.059542825607   110.67139816   101.04896369
 H     10   5   2     2.053106669587   115.62979247   316.14571865
 H     11   7   5     2.063950634360   110.49163068   101.74170924
 H     11   7   5     2.059700820835   111.58003634   341.05060706
 H     11   7   5     2.063296917337   110.06358500   220.51876312
 H     12  10   5     2.054455645015   118.94825336   359.09369265
 H     14  13  12     2.056577803872   112.07242990   183.36986161
 H     14  13  12     2.063115645219   110.19952081   303.87996560
 H     14  13  12     2.063928440275   110.16831562    62.89339391
 H     15  13  12     2.057248299978   117.40944823     0.17098442
 H     16  15  13     2.050430761155   118.07008928   359.88424364
 H     17  16  15     2.056059371722   118.67353299   359.95820091
 H     19  18  17     2.062831282601   110.34501510   301.80970584
 H     19  18  17     2.057754093668   111.67364841   181.29104231
 H     19  18  17     2.062840773807   110.19763883    61.04588170
 H     20  18  17     2.052815178193   119.47538459   359.54450823
 H     21   1   2     2.076372974363   106.23094970   114.83450730
 H     21   1   2     2.088128997880   110.37512719   231.07409606
 H      1   2   3     1.824022381752    84.25417122    64.55300208

---------------------
BASIS SET INFORMATION
---------------------
There are 3 groups of distinct atoms

 Group   1 Type O   : 11s6p2d contracted to 5s3p2d pattern {62111/411/11}
 Group   2 Type C   : 11s6p1d contracted to 5s3p1d pattern {62111/411/1}
 Group   3 Type H   : 5s contracted to 3s pattern {311}

Atom   0O    basis set group =>   1
Atom   1C    basis set group =>   2
Atom   2C    basis set group =>   2
Atom   3C    basis set group =>   2
Atom   4C    basis set group =>   2
Atom   5C    basis set group =>   2
Atom   6C    basis set group =>   2
Atom   7C    basis set group =>   2
Atom   8C    basis set group =>   2
Atom   9C    basis set group =>   2
Atom  10C    basis set group =>   2
Atom  11C    basis set group =>   2
Atom  12C    basis set group =>   2
Atom  13C    basis set group =>   2
Atom  14C    basis set group =>   2
Atom  15C    basis set group =>   2
Atom  16C    basis set group =>   2
Atom  17C    basis set group =>   2
Atom  18C    basis set group =>   2
Atom  19C    basis set group =>   2
Atom  20C    basis set group =>   2
Atom  21H    basis set group =>   3
Atom  22H    basis set group =>   3
Atom  23H    basis set group =>   3
Atom  24H    basis set group =>   3
Atom  25H    basis set group =>   3
Atom  26H    basis set group =>   3
Atom  27H    basis set group =>   3
Atom  28H    basis set group =>   3
Atom  29H    basis set group =>   3
Atom  30H    basis set group =>   3
Atom  31H    basis set group =>   3
Atom  32H    basis set group =>   3
Atom  33H    basis set group =>   3
Atom  34H    basis set group =>   3
Atom  35H    basis set group =>   3
Atom  36H    basis set group =>   3
Atom  37H    basis set group =>   3
Atom  38H    basis set group =>   3
Atom  39H    basis set group =>   3
Atom  40H    basis set group =>   3
Atom  41H    basis set group =>   3
Atom  42H    basis set group =>   3
Atom  43H    basis set group =>   3
Atom  44H    basis set group =>   3
Atom  45H    basis set group =>   3
Atom  46H    basis set group =>   3
Atom  47H    basis set group =>   3
Atom  48H    basis set group =>   3
Atom  49H    basis set group =>   3
Atom  50H    basis set group =>   3
---------------------------------
AUXILIARY/J BASIS SET INFORMATION
---------------------------------
There are 3 groups of distinct atoms

 Group   1 Type O   : 8s3p3d contracted to 6s3p3d pattern {311111/111/111}
 Group   2 Type C   : 8s3p3d contracted to 6s3p3d pattern {311111/111/111}
 Group   3 Type H   : 5s2p contracted to 3s1p pattern {311/2}

Atom   0O    basis set group =>   1
Atom   1C    basis set group =>   2
Atom   2C    basis set group =>   2
Atom   3C    basis set group =>   2
Atom   4C    basis set group =>   2
Atom   5C    basis set group =>   2
Atom   6C    basis set group =>   2
Atom   7C    basis set group =>   2
Atom   8C    basis set group =>   2
Atom   9C    basis set group =>   2
Atom  10C    basis set group =>   2
Atom  11C    basis set group =>   2
Atom  12C    basis set group =>   2
Atom  13C    basis set group =>   2
Atom  14C    basis set group =>   2
Atom  15C    basis set group =>   2
Atom  16C    basis set group =>   2
Atom  17C    basis set group =>   2
Atom  18C    basis set group =>   2
Atom  19C    basis set group =>   2
Atom  20C    basis set group =>   2
Atom  21H    basis set group =>   3
Atom  22H    basis set group =>   3
Atom  23H    basis set group =>   3
Atom  24H    basis set group =>   3
Atom  25H    basis set group =>   3
Atom  26H    basis set group =>   3
Atom  27H    basis set group =>   3
Atom  28H    basis set group =>   3
Atom  29H    basis set group =>   3
Atom  30H    basis set group =>   3
Atom  31H    basis set group =>   3
Atom  32H    basis set group =>   3
Atom  33H    basis set group =>   3
Atom  34H    basis set group =>   3
Atom  35H    basis set group =>   3
Atom  36H    basis set group =>   3
Atom  37H    basis set group =>   3
Atom  38H    basis set group =>   3
Atom  39H    basis set group =>   3
Atom  40H    basis set group =>   3
Atom  41H    basis set group =>   3
Atom  42H    basis set group =>   3
Atom  43H    basis set group =>   3
Atom  44H    basis set group =>   3
Atom  45H    basis set group =>   3
Atom  46H    basis set group =>   3
Atom  47H    basis set group =>   3
Atom  48H    basis set group =>   3
Atom  49H    basis set group =>   3
Atom  50H    basis set group =>   3


           ************************************************************
           *        Program running with 16 parallel MPI-processes    *
           *              working on a common directory               *
           ************************************************************
------------------------------------------------------------------------------
                             ORCA STARTUP CALCULATIONS
                           -- RI-GTO INTEGRALS CHOSEN --
------------------------------------------------------------------------------
------------------------------------------------------------------------------
                   ___                                                        
                  /   \      - P O W E R E D   B Y -                         
                 /     \                                                     
                 |  |  |   _    _      __       _____    __    __             
                 |  |  |  | |  | |    /  \     |  _  \  |  |  /  |          
                  \  \/   | |  | |   /    \    | | | |  |  | /  /          
                 / \  \   | |__| |  /  /\  \   | |_| |  |  |/  /          
                |  |  |   |  __  | /  /__\  \  |    /   |      \           
                |  |  |   | |  | | |   __   |  |    \   |  |\   \          
                \     /   | |  | | |  |  |  |  | |\  \  |  | \   \       
                 \___/    |_|  |_| |__|  |__|  |_| \__\ |__|  \__/        
                                                                              
                      - O R C A' S   B I G   F R I E N D -                    
                                      &                                       
                       - I N T E G R A L  F E E D E R -                       
                                                                              
 v1 FN, 2020, v2 2021, v3 2022-2024                                           
------------------------------------------------------------------------------


----------------------
SHARK INTEGRAL PACKAGE
----------------------

Number of atoms                             ...     51
Number of basis functions                   ...    494
Number of shells                            ...    280
Maximum angular momentum                    ...      2
Integral batch strategy                     ... SHARK/LIBINT Hybrid
RI-J (if used) integral strategy            ... SPLIT-RIJ (Revised 2003 algorithm where possible)
Printlevel                                  ...      1
Contraction scheme used                     ... SEGMENTED contraction
Prescreening option                         ... SCHWARTZ
   Thresh                                   ... 2.500e-11
   Tcut                                     ... 2.500e-12
   Tpresel                                  ... 2.500e-12 
Coulomb Range Separation                    ... NOT USED
Exchange Range Separation                   ... NOT USED
Multipole approximations                    ... NOT USED
Finite Nucleus Model                        ... NOT USED
CABS basis                                  ... NOT available
Auxiliary Coulomb fitting basis             ... AVAILABLE
   # of basis functions in Aux-J            ...    810
   # of shells in Aux-J                     ...    372
   Maximum angular momentum in Aux-J        ...      2
Auxiliary J/K fitting basis                 ... NOT available
Auxiliary Correlation fitting basis         ... NOT available
Auxiliary 'external' fitting basis          ... NOT available

Checking pre-screening integrals            ... done (  0.0 sec) Dimension = 280
Check shell pair data                       ... done (  0.0 sec)
Shell pair information
Shell pair cut-off parameter TPreSel        ...   2.5e-12
Total number of shell pairs                 ...     39340
Shell pairs after pre-screening             ...     24244
Total number of primitive shell pairs       ...    140737
Primitive shell pairs kept                  ...     55612
          la=0 lb=0:  11235 shell pairs
          la=1 lb=0:   8228 shell pairs
          la=1 lb=1:   1499 shell pairs
          la=2 lb=0:   2292 shell pairs
          la=2 lb=1:    866 shell pairs
          la=2 lb=2:    124 shell pairs

Calculating one electron integrals          ... done (  0.0 sec)
Calculating RI/J V-Matrix + Cholesky decomp.... done (  0.0 sec)
Calculating Nuclear repulsion               ... done (  0.0 sec) ENN=   1559.921197668317 Eh

Diagonalization of the overlap matrix:
Smallest eigenvalue                        ... 2.099e-05
Time for diagonalization                   ...    0.022 sec
Threshold for overlap eigenvalues          ... 1.000e-07
Number of eigenvalues below threshold      ... 0
Time for construction of square roots      ...    0.013 sec
Total time needed                          ...    0.037 sec

-------------------
DFT GRID GENERATION
-------------------

General Integration Accuracy     IntAcc      ... 4.959
Radial Grid Type                 RadialGrid  ... OptM3 with GC (2021)
Angular Grid (max. ang.)         AngularGrid ... 6 (Lebedev-590)
Angular grid pruning method      GridPruning ... 4 (adaptive)
Weight generation scheme         WeightScheme... mBecke (2022)
Basis function cutoff            BFCut       ... 1.0000e-11
Integration weight cutoff        WCut        ... 1.0000e-14
Partially contracted basis set               ... off
Rotationally invariant grid construction     ... off
Angular grids for H and He will be reduced by one unit
Diffuse basis detected: some atoms will have their outermost
                        angular grid increased by 1.

Total number of grid points                  ...   552875
Total number of batches                      ...     8661
Average number of points per batch           ...       63
Average number of grid points per atom       ...    10841
Initializing property integral containers    ... done (  0.0 sec)

SHARK setup successfully completed in   4.3 seconds

Maximum memory used throughout the entire STARTUP-calculation: 123.8 MB


           ************************************************************
           *        Program running with 16 parallel MPI-processes    *
           *              working on a common directory               *
           ************************************************************
-------------------------------------------------------------------------------
                                 ORCA GUESS
                   Start orbitals & Density for SCF / CASSCF
-------------------------------------------------------------------------------

------------
SCF SETTINGS
------------
Hamiltonian:
 Density Functional     Method          .... DFT(GTOs)
 Exchange Functional    Exchange        .... B973C
 Correlation Functional Correlation     .... B973C
 Gradients option       PostSCFGGA      .... off
 RI-approximation to the Coulomb term is turned on
   Number of AuxJ basis functions       .... 810


General Settings:
 Integral files         IntName         .... m1_00_Vitamin_A-GFN1_003-B97-3C-TZ
 Hartree-Fock type      HFTyp           .... RHF
 Total Charge           Charge          ....    0
 Multiplicity           Mult            ....    1
 Number of Electrons    NEL             ....  158
 Basis Dimension        Dim             ....  494
 Nuclear Repulsion      ENuc            ....   1559.9211976683 Eh

Convergence Acceleration:
 AO-DIIS                CNVDIIS         .... on
   Start iteration      DIISMaxIt       ....    12
   Startup error        DIISStart       ....  0.200000
   # of expansion vecs  DIISMaxEq       ....     5
   Bias factor          DIISBfac        ....   1.050
   Max. coefficient     DIISMaxC        ....  10.000
 MO-DIIS                CNVKDIIS        .... off
 Trust-Rad. Augm. Hess. CNVTRAH         .... off
 SOSCF                  CNVSOSCF        .... on
   Start iteration      SOSCFMaxIt      ....   150
   Startup grad/error   SOSCFStart      ....  0.003300
   Hessian update       SOSCFHessUp     .... L-BFGS
 Level Shifting         CNVShift        .... on
   Level shift para.    LevelShift      ....    0.2500
   Turn off err/grad.   ShiftErr        ....    0.0010
 Zerner damping         CNVZerner       .... off
 Static damping         CNVDamp         .... on
   Fraction old density DampFac         ....    0.7000
   Max. Damping (<1)    DampMax         ....    0.9800
   Min. Damping (>=0)   DampMin         ....    0.0000
   Turn off err/grad.   DampErr         ....    0.1000

SCF Procedure:
 Maximum # iterations   MaxIter         ....   800
 SCF integral mode      SCFMode         .... Direct
   Integral package                     .... SHARK and LIBINT hybrid scheme
 Reset frequency        DirectResetFreq ....    20
 Integral Threshold     Thresh          ....  2.500e-11 Eh
 Primitive CutOff       TCut            ....  2.500e-12 Eh

Convergence Tolerance:
 Convergence Check Mode ConvCheckMode   .... Total+1el-Energy
 Convergence forced     ConvForced      .... 0
 Energy Change          TolE            ....  1.000e-08 Eh
 1-El. energy change                    ....  1.000e-05 Eh
 Orbital Gradient       TolG            ....  1.000e-05
 Orbital Rotation angle TolX            ....  1.000e-05
 DIIS Error             TolErr          ....  5.000e-07

--------------------------------
INITIAL GUESS: MINIMAL BASIS EHT
--------------------------------
The minimal basis has 135 functions
EHT matrix was diagonalized
Basis set overlap was calculated now projecting the orbitals
Using GuessMode=FMatrix for the initial guess
C*T matrix was formed
Effective Fockian was calculated
Effective Fockian was diagonalized
Initial density was built
                      ------------------
                      INITIAL GUESS DONE
                      ------------------
             **** ENERGY FILE WAS UPDATED (m1_00_Vitamin_A-GFN1_003-B97-3C-TZ.en.tmp) ****
Finished Guess after   0.3 sec
Maximum memory used throughout the entire GUESS-calculation: 41.4 MB


           ************************************************************
           *        Program running with 16 parallel MPI-processes    *
           *              working on a common directory               *
           ************************************************************

-------------------------------------------------------------------------------------------
                                      ORCA LEAN-SCF
                              memory conserving SCF solver
-------------------------------------------------------------------------------------------

----------------------------------------D-I-I-S--------------------------------------------
Iteration    Energy (Eh)           Delta-E    RMSDP     MaxDP     DIISErr   Damp  Time(sec)
-------------------------------------------------------------------------------------------
               ***  Starting incremental Fock matrix formation  ***
    1    -852.7029610681183840     0.00e+00  4.10e-03  1.36e-01  4.63e-01  0.700   0.8
Warning: op=0 Small HOMO/LUMO gap (   0.080) - skipping pre-diagonalization
         Will do a full diagonalization
    2    -853.3148475477196371    -6.12e-01  4.45e-03  4.88e-01  3.26e-01  0.700   0.9
    3    -853.7272115623313766    -4.12e-01  2.58e-03  1.81e-01  2.28e-01  0.700   0.8
                               ***Turning on AO-DIIS***
    4    -854.0138248750727143    -2.87e-01  1.76e-03  9.59e-02  1.59e-01  0.700   0.8
    5    -854.2109585517127925    -1.97e-01  1.23e-03  4.83e-02  1.11e-01  0.700   0.8
    6    -854.3527605646245320    -1.42e-01  8.82e-04  3.50e-02  7.78e-02  0.700   0.8
    7    -854.4529542856034823    -1.00e-01  2.10e-03  8.34e-02  5.44e-02  0.000   0.8
    8    -854.6849908709327792    -2.32e-01  4.84e-04  7.05e-02  2.10e-02  0.000   0.8
    9    -854.6854031694729201    -4.12e-04  6.14e-05  3.62e-03  1.41e-02  0.000   0.8
                              *** Initializing SOSCF ***
---------------------------------------S-O-S-C-F--------------------------------------
Iteration    Energy (Eh)           Delta-E    RMSDP     MaxDP     MaxGrad    Time(sec)
--------------------------------------------------------------------------------------
   10    -854.6856351756150616    -2.32e-04  4.05e-05  4.56e-03  2.30e-03     0.9
               *** Restarting incremental Fock matrix formation ***
   11    -854.6856487565073621    -1.36e-05  7.23e-05  1.20e-02  1.13e-04     0.9
   12    -854.6856461299162220     2.63e-06  3.67e-05  5.94e-03  2.60e-04     0.8
   13    -854.6856497545995808    -3.62e-06  9.60e-06  8.91e-04  3.66e-05     0.8
   14    -854.6856495695005833     1.85e-07  5.33e-06  7.24e-04  9.05e-05     0.8
   15    -854.6856497880962706    -2.19e-07  4.00e-06  2.72e-04  3.61e-06     0.7
   16    -854.6856497906792356    -2.58e-09  2.65e-06  2.28e-04  1.05e-05     0.7
                 **** Energy Check signals convergence ****

               *****************************************************
               *                     SUCCESS                       *
               *           SCF CONVERGED AFTER  16 CYCLES          *
               *****************************************************

             **** ENERGY FILE WAS UPDATED (m1_00_Vitamin_A-GFN1_003-B97-3C-TZ.en.tmp) ****

----------------
TOTAL SCF ENERGY
----------------

Total Energy       :       -854.68564979067924 Eh          -23257.17890 eV

Components:
Nuclear Repulsion  :       1559.92119766831729 Eh           42447.61378 eV
Electronic Energy  :      -2414.60684745899653 Eh          -65704.79269 eV
One Electron Energy:      -4254.13632966035038 Eh         -115760.93470 eV
Two Electron Energy:       1839.52948220135363 Eh           50056.14202 eV

Virial components:
Potential Energy   :      -1705.99704892700311 Eh          -46422.53978 eV
Kinetic Energy     :        851.31139913632387 Eh           23165.36087 eV
Virial Ratio       :          2.00396359153393

DFT components:
N(Alpha)           :       79.000005869590 electrons
N(Beta)            :       79.000005869590 electrons
N(Total)           :      158.000011739179 electrons
E(XC)              :     -127.681747105550 Eh       

---------------
SCF CONVERGENCE
---------------

  Last Energy change         ...    2.5830e-09  Tolerance :   1.0000e-08
  Last MAX-Density change    ...    2.2790e-04  Tolerance :   1.0000e-07
  Last RMS-Density change    ...    2.6534e-06  Tolerance :   5.0000e-09
  Last DIIS Error            ...    2.2999e-03  Tolerance :   5.0000e-07
  Last Orbital Gradient      ...    1.0543e-05  Tolerance :   1.0000e-05
  Last Orbital Rotation      ...    1.7338e-05  Tolerance :   1.0000e-05


----------------
ORBITAL ENERGIES
----------------

  NO   OCC          E(Eh)            E(eV) 
   0   2.0000     -18.744251      -510.0570 
   1   2.0000      -9.943297      -270.5709 
   2   2.0000      -9.902823      -269.4695 
   3   2.0000      -9.900400      -269.4036 
   4   2.0000      -9.900317      -269.4013 
   5   2.0000      -9.892679      -269.1935 
   6   2.0000      -9.891938      -269.1733 
   7   2.0000      -9.891441      -269.1598 
   8   2.0000      -9.890926      -269.1458 
   9   2.0000      -9.889784      -269.1147 
  10   2.0000      -9.889071      -269.0953 
  11   2.0000      -9.887474      -269.0518 
  12   2.0000      -9.886915      -269.0366 
  13   2.0000      -9.886166      -269.0163 
  14   2.0000      -9.885870      -269.0082 
  15   2.0000      -9.884223      -268.9634 
  16   2.0000      -9.881748      -268.8960 
  17   2.0000      -9.880398      -268.8593 
  18   2.0000      -9.876243      -268.7462 
  19   2.0000      -9.875648      -268.7301 
  20   2.0000      -9.872143      -268.6347 
  21   2.0000      -0.944730       -25.7074 
  22   2.0000      -0.781360       -21.2619 
  23   2.0000      -0.765143       -20.8206 
  24   2.0000      -0.750491       -20.4219 
  25   2.0000      -0.717667       -19.5287 
  26   2.0000      -0.713068       -19.4036 
  27   2.0000      -0.692757       -18.8509 
  28   2.0000      -0.661126       -17.9901 
  29   2.0000      -0.651418       -17.7260 
  30   2.0000      -0.629566       -17.1314 
  31   2.0000      -0.619681       -16.8624 
  32   2.0000      -0.618959       -16.8427 
  33   2.0000      -0.609861       -16.5952 
  34   2.0000      -0.600830       -16.3494 
  35   2.0000      -0.560139       -15.2422 
  36   2.0000      -0.532979       -14.5031 
  37   2.0000      -0.513260       -13.9665 
  38   2.0000      -0.498326       -13.5601 
  39   2.0000      -0.485254       -13.2044 
  40   2.0000      -0.470602       -12.8057 
  41   2.0000      -0.463088       -12.6013 
  42   2.0000      -0.450292       -12.2531 
  43   2.0000      -0.431993       -11.7551 
  44   2.0000      -0.424791       -11.5592 
  45   2.0000      -0.416140       -11.3237 
  46   2.0000      -0.403923       -10.9913 
  47   2.0000      -0.401434       -10.9236 
  48   2.0000      -0.396505       -10.7894 
  49   2.0000      -0.388526       -10.5723 
  50   2.0000      -0.382233       -10.4011 
  51   2.0000      -0.378285       -10.2936 
  52   2.0000      -0.376494       -10.2449 
  53   2.0000      -0.375832       -10.2269 
  54   2.0000      -0.371212       -10.1012 
  55   2.0000      -0.358645        -9.7592 
  56   2.0000      -0.353922        -9.6307 
  57   2.0000      -0.349917        -9.5217 
  58   2.0000      -0.344796        -9.3824 
  59   2.0000      -0.343663        -9.3516 
  60   2.0000      -0.339483        -9.2378 
  61   2.0000      -0.329506        -8.9663 
  62   2.0000      -0.326966        -8.8972 
  63   2.0000      -0.324508        -8.8303 
  64   2.0000      -0.311787        -8.4841 
  65   2.0000      -0.309284        -8.4161 
  66   2.0000      -0.305893        -8.3238 
  67   2.0000      -0.299800        -8.1580 
  68   2.0000      -0.299102        -8.1390 
  69   2.0000      -0.294968        -8.0265 
  70   2.0000      -0.290352        -7.9009 
  71   2.0000      -0.280574        -7.6348 
  72   2.0000      -0.270125        -7.3505 
  73   2.0000      -0.261049        -7.1035 
  74   2.0000      -0.253250        -6.8913 
  75   2.0000      -0.235481        -6.4078 
  76   2.0000      -0.226395        -6.1605 
  77   2.0000      -0.200372        -5.4524 
  78   2.0000      -0.165153        -4.4940 
  79   0.0000      -0.080856        -2.2002 
  80   0.0000      -0.025590        -0.6963 
  81   0.0000       0.005026         0.1368 
  82   0.0000       0.019022         0.5176 
  83   0.0000       0.022984         0.6254 
  84   0.0000       0.027084         0.7370 
  85   0.0000       0.035747         0.9727 
  86   0.0000       0.036624         0.9966 
  87   0.0000       0.041551         1.1307 
  88   0.0000       0.047765         1.2997 
  89   0.0000       0.051691         1.4066 
*Only the first 10 virtual orbitals were printed.

                    ********************************
                    * MULLIKEN POPULATION ANALYSIS *
                    ********************************

-----------------------
MULLIKEN ATOMIC CHARGES
-----------------------
   0 O :   -0.558193
   1 C :   -0.049894
   2 C :   -0.307404
   3 C :   -0.336120
   4 C :    0.311278
   5 C :   -0.305129
   6 C :   -0.015123
   7 C :   -0.450356
   8 C :   -0.553523
   9 C :   -0.346806
  10 C :   -0.581478
  11 C :   -0.348151
  12 C :    0.273952
  13 C :   -0.573880
  14 C :   -0.225054
  15 C :   -0.101196
  16 C :   -0.296318
  17 C :    0.255210
  18 C :   -0.602383
  19 C :   -0.256960
  20 C :   -0.286307
  21 H :    0.174428
  22 H :    0.164199
  23 H :    0.167592
  24 H :    0.172088
  25 H :    0.167808
  26 H :    0.158224
  27 H :    0.168657
  28 H :    0.165504
  29 H :    0.169768
  30 H :    0.169277
  31 H :    0.161927
  32 H :    0.175283
  33 H :    0.176412
  34 H :    0.167597
  35 H :    0.213583
  36 H :    0.154703
  37 H :    0.162618
  38 H :    0.172213
  39 H :    0.180945
  40 H :    0.178568
  41 H :    0.132144
  42 H :    0.153254
  43 H :    0.135484
  44 H :    0.182494
  45 H :    0.189746
  46 H :    0.185413
  47 H :    0.172793
  48 H :    0.188001
  49 H :    0.175076
  50 H :    0.418036
Sum of atomic charges:    0.0000000

--------------------------------
MULLIKEN REDUCED ORBITAL CHARGES
--------------------------------
  0 O s       :     3.808715  s :     3.808715
      pz      :     1.213322  p :     4.720408
      px      :     1.732172
      py      :     1.774914
      dz2     :    -0.000353  d :     0.029069
      dxz     :     0.012501
      dyz     :     0.007582
      dx2y2   :     0.003807
      dxy     :     0.005531

  1 C s       :     3.011903  s :     3.011903
      pz      :     0.993437  p :     2.981771
      px      :     1.019772
      py      :     0.968563
      dz2     :     0.007306  d :     0.056220
      dxz     :     0.013682
      dyz     :     0.014117
      dx2y2   :     0.007244
      dxy     :     0.013870

  2 C s       :     3.162068  s :     3.162068
      pz      :     1.069601  p :     3.100563
      px      :     1.021809
      py      :     1.009153
      dz2     :     0.006248  d :     0.044773
      dxz     :     0.013246
      dyz     :     0.008380
      dx2y2   :     0.006324
      dxy     :     0.010574

  3 C s       :     3.203650  s :     3.203650
      pz      :     0.960384  p :     3.088057
      px      :     1.037080
      py      :     1.090593
      dz2     :     0.008389  d :     0.044413
      dxz     :     0.011143
      dyz     :     0.008367
      dx2y2   :     0.004587
      dxy     :     0.011926

  4 C s       :     3.088536  s :     3.088536
      pz      :     0.764847  p :     2.551723
      px      :     0.907391
      py      :     0.879484
      dz2     :     0.012565  d :     0.048463
      dxz     :     0.014131
      dyz     :     0.009715
      dx2y2   :     0.005249
      dxy     :     0.006803

  5 C s       :     3.137612  s :     3.137612
      pz      :     1.051581  p :     3.121883
      px      :     0.972800
      py      :     1.097502
      dz2     :     0.005329  d :     0.045634
      dxz     :     0.010928
      dyz     :     0.011900
      dx2y2   :     0.008540
      dxy     :     0.008937

  6 C s       :     3.178153  s :     3.178153
      pz      :     0.840555  p :     2.789928
      px      :     0.994584
      py      :     0.954790
      dz2     :     0.012158  d :     0.047041
      dxz     :     0.013485
      dyz     :     0.010442
      dx2y2   :     0.005016
      dxy     :     0.005939

  7 C s       :     3.198614  s :     3.198614
      pz      :     1.085856  p :     3.213919
      px      :     1.057747
      py      :     1.070316
      dz2     :     0.002681  d :     0.037823
      dxz     :     0.010793
      dyz     :     0.010871
      dx2y2   :     0.002392
      dxy     :     0.011086

  8 C s       :     3.264015  s :     3.264015
      pz      :     1.093739  p :     3.251961
      px      :     1.106077
      py      :     1.052145
      dz2     :     0.002956  d :     0.037546
      dxz     :     0.010988
      dyz     :     0.010095
      dx2y2   :     0.002316
      dxy     :     0.011191

  9 C s       :     3.222680  s :     3.222680
      pz      :     1.014574  p :     3.082613
      px      :     1.103293
      py      :     0.964745
      dz2     :     0.007664  d :     0.041513
      dxz     :     0.009271
      dyz     :     0.006925
      dx2y2   :     0.008634
      dxy     :     0.009019

 10 C s       :     3.308303  s :     3.308303
      pz      :     1.052719  p :     3.235040
      px      :     1.094179
      py      :     1.088142
      dz2     :     0.003861  d :     0.038135
      dxz     :     0.010662
      dyz     :     0.010716
      dx2y2   :     0.001666
      dxy     :     0.011229

 11 C s       :     3.333244  s :     3.333244
      pz      :     0.926704  p :     2.972328
      px      :     1.060454
      py      :     0.985170
      dz2     :     0.006784  d :     0.042579
      dxz     :     0.009867
      dyz     :     0.007237
      dx2y2   :     0.009078
      dxy     :     0.009612

 12 C s       :     3.168144  s :     3.168144
      pz      :     0.743061  p :     2.509113
      px      :     0.947356
      py      :     0.818697
      dz2     :     0.009241  d :     0.048791
      dxz     :     0.012383
      dyz     :     0.006524
      dx2y2   :     0.009487
      dxy     :     0.011156

 13 C s       :     3.273510  s :     3.273510
      pz      :     1.027272  p :     3.262610
      px      :     1.172320
      py      :     1.063018
      dz2     :     0.009574  d :     0.037759
      dxz     :     0.003772
      dyz     :     0.009733
      dx2y2   :     0.004812
      dxy     :     0.009868

 14 C s       :     3.266854  s :     3.266854
      pz      :     0.908546  p :     2.916102
      px      :     1.064636
      py      :     0.942920
      dz2     :     0.006277  d :     0.042097
      dxz     :     0.009948
      dyz     :     0.007110
      dx2y2   :     0.009568
      dxy     :     0.009194

 15 C s       :     3.072986  s :     3.072986
      pz      :     0.960248  p :     2.986399
      px      :     1.065810
      py      :     0.960341
      dz2     :     0.006370  d :     0.041811
      dxz     :     0.010089
      dyz     :     0.007276
      dx2y2   :     0.008881
      dxy     :     0.009195

 16 C s       :     3.312143  s :     3.312143
      pz      :     0.959773  p :     2.942332
      px      :     1.022320
      py      :     0.960238
      dz2     :     0.006475  d :     0.041844
      dxz     :     0.009923
      dyz     :     0.007190
      dx2y2   :     0.009240
      dxy     :     0.009015

 17 C s       :     3.113336  s :     3.113336
      pz      :     0.797147  p :     2.581997
      px      :     0.944426
      py      :     0.840424
      dz2     :     0.010171  d :     0.049457
      dxz     :     0.011530
      dyz     :     0.006749
      dx2y2   :     0.010420
      dxy     :     0.010588

 18 C s       :     3.305944  s :     3.305944
      pz      :     1.040319  p :     3.258821
      px      :     1.162142
      py      :     1.056360
      dz2     :     0.010853  d :     0.037619
      dxz     :     0.003145
      dyz     :     0.008220
      dx2y2   :     0.008149
      dxy     :     0.007252

 19 C s       :     3.223151  s :     3.223151
      pz      :     1.022716  p :     2.995590
      px      :     0.978503
      py      :     0.994371
      dz2     :     0.005862  d :     0.038219
[...]
114:   1504.99   0.001654    8.36  0.000343  (-0.016963  0.005343 -0.005160)
115:   1509.20   0.001631    8.24  0.000337  ( 0.011245 -0.006780 -0.012838)
116:   1514.65   0.000694    3.51  0.000143  ( 0.008300 -0.005136 -0.006911)
117:   1519.67   0.001639    8.28  0.000337  (-0.006839  0.014914 -0.008208)
118:   1599.41   0.002039   10.31  0.000398  ( 0.013509  0.004347  0.014018)
119:   1610.09   0.005167   26.11  0.001002  (-0.031315 -0.003306 -0.003161)
120:   1643.87   0.001652    8.35  0.000314  (-0.012280  0.004103  0.012085)
121:   1652.90   0.000404    2.04  0.000076  (-0.007395 -0.001537 -0.004391)
122:   1661.55   0.001846    9.33  0.000347  ( 0.018170 -0.004070  0.000060)
123:   2938.18   0.008133   41.10  0.000864  ( 0.010489 -0.016108 -0.022234)
124:   2975.05   0.009609   48.56  0.001008  (-0.007744 -0.002100  0.030717)
125:   2975.54   0.006279   31.73  0.000659  ( 0.008646 -0.024092  0.001829)
126:   2984.09   0.015085   76.24  0.001578  ( 0.034041  0.002454 -0.020316)
127:   2989.05   0.002647   13.38  0.000276  ( 0.005558 -0.009017  0.012812)
128:   2992.74   0.004777   24.14  0.000498  ( 0.012162  0.018676  0.001206)
129:   2996.82   0.009416   47.59  0.000981  ( 0.018377  0.010633  0.023016)
130:   2997.87   0.010967   55.42  0.001142  (-0.000696 -0.007929  0.032837)
131:   3002.09   0.014644   74.01  0.001522  ( 0.034748  0.003091 -0.017472)
132:   3002.57   0.004691   23.71  0.000488  ( 0.004306 -0.011918 -0.018083)
133:   3018.27   0.017623   89.06  0.001822  (-0.038754  0.007466 -0.016262)
134:   3020.51   0.006761   34.17  0.000699  ( 0.012285  0.022065  0.007794)
135:   3020.68   0.012917   65.28  0.001334  ( 0.029013  0.016569 -0.014771)
136:   3035.15   0.011918   60.23  0.001225  ( 0.000138  0.031358  0.015557)
137:   3042.44   0.003488   17.63  0.000358  ( 0.003402  0.015163 -0.010784)
138:   3050.34   0.003531   17.84  0.000361  ( 0.004031  0.015188 -0.010692)
139:   3059.90   0.001876    9.48  0.000191  ( 0.002758  0.013351  0.002349)
140:   3064.51   0.021998  111.17  0.002240  ( 0.038532 -0.012095  0.024681)
141:   3076.03   0.000648    3.28  0.000066  ( 0.003247 -0.003900 -0.006326)
142:   3076.40   0.007020   35.48  0.000712  (-0.013369  0.022533  0.005059)
143:   3079.77   0.006438   32.53  0.000652  ( 0.019779  0.006953 -0.014587)
144:   3082.54   0.000078    0.39  0.000008  ( 0.002763 -0.000333 -0.000339)
145:   3089.88   0.007849   39.67  0.000793  ( 0.005652 -0.018848 -0.020139)
146:   3095.34   0.001330    6.72  0.000134  ( 0.003054 -0.003565 -0.010587)
147:   3103.16   0.011135   56.27  0.001120  ( 0.021249 -0.019174 -0.017337)
148:   3108.42   0.000935    4.73  0.000094  (-0.007152  0.002986  0.005818)
149:   3110.17   0.001169    5.91  0.000117  (-0.000562 -0.005073 -0.009554)
150:   3111.44   0.008447   42.69  0.000847  (-0.028144  0.007242  0.001647)
151:   3131.05   0.007843   39.64  0.000782  ( 0.019239 -0.014791 -0.013885)
152:   3729.23   0.001855    9.37  0.000155  ( 0.000846  0.009046 -0.008524)

* The epsilon (eps) is given for a Dirac delta lineshape.
** The dipole moment derivative (T) already includes vibrational overlap.

The first frequency considered to be a vibration is 6
The total number of vibrations considered is 147


--------------------------
THERMOCHEMISTRY AT 298.15K
--------------------------

Temperature         ...   298.15 K
Pressure            ...     1.00 atm
Total Mass          ...   286.46 AMU
Quasi RRHO          ...     True
Cut-Off Frequency   ...     1.00 cm^-1

Throughout the following assumptions are being made:
  (1) The electronic state is orbitally nondegenerate
  (2) There are no thermally accessible electronically excited states
  (3) Hindered rotations indicated by low frequency modes are not
      treated as such but are treated as vibrations and this may
      cause some error
  (4) All equations used are the standard statistical mechanics
      equations for an ideal gas
  (5) All vibrations are strictly harmonic

freq.      17.15  E(vib)   ...       0.57 
freq.      27.07  E(vib)   ...       0.55 
freq.      34.16  E(vib)   ...       0.55 
freq.      47.43  E(vib)   ...       0.53 
freq.      59.24  E(vib)   ...       0.51 
freq.      63.20  E(vib)   ...       0.51 
freq.      81.61  E(vib)   ...       0.48 
freq.     102.53  E(vib)   ...       0.46 
freq.     111.04  E(vib)   ...       0.45 
freq.     119.18  E(vib)   ...       0.44 
freq.     155.34  E(vib)   ...       0.40 
freq.     161.62  E(vib)   ...       0.39 
freq.     174.11  E(vib)   ...       0.38 
freq.     182.57  E(vib)   ...       0.37 
freq.     185.85  E(vib)   ...       0.37 
freq.     222.07  E(vib)   ...       0.33 
freq.     231.37  E(vib)   ...       0.32 
freq.     235.19  E(vib)   ...       0.32 
freq.     258.69  E(vib)   ...       0.30 
freq.     270.66  E(vib)   ...       0.29 
freq.     275.02  E(vib)   ...       0.28 
freq.     304.17  E(vib)   ...       0.26 
freq.     316.90  E(vib)   ...       0.25 
freq.     319.71  E(vib)   ...       0.25 
freq.     336.14  E(vib)   ...       0.24 
freq.     346.61  E(vib)   ...       0.23 
freq.     352.71  E(vib)   ...       0.22 
freq.     368.31  E(vib)   ...       0.21 
freq.     388.81  E(vib)   ...       0.20 
freq.     413.34  E(vib)   ...       0.19 
freq.     423.42  E(vib)   ...       0.18 
freq.     436.41  E(vib)   ...       0.17 
freq.     476.72  E(vib)   ...       0.15 
freq.     485.74  E(vib)   ...       0.15 
freq.     495.09  E(vib)   ...       0.14 
freq.     522.16  E(vib)   ...       0.13 
freq.     525.38  E(vib)   ...       0.13 
freq.     536.49  E(vib)   ...       0.12 
freq.     581.16  E(vib)   ...       0.11 
freq.     605.64  E(vib)   ...       0.10 
freq.     616.52  E(vib)   ...       0.09 
freq.     646.13  E(vib)   ...       0.09 
freq.     740.44  E(vib)   ...       0.06 
freq.     797.99  E(vib)   ...       0.05 
freq.     801.75  E(vib)   ...       0.05 
freq.     834.64  E(vib)   ...       0.04 
freq.     852.51  E(vib)   ...       0.04 
freq.     859.73  E(vib)   ...       0.04 
freq.     868.49  E(vib)   ...       0.04 
freq.     890.77  E(vib)   ...       0.04 
freq.     895.11  E(vib)   ...       0.03 
freq.     900.05  E(vib)   ...       0.03 
freq.     912.16  E(vib)   ...       0.03 
freq.     937.08  E(vib)   ...       0.03 
freq.     947.67  E(vib)   ...       0.03 
freq.     951.87  E(vib)   ...       0.03 
freq.     969.19  E(vib)   ...       0.03 
freq.     980.29  E(vib)   ...       0.02 
freq.     985.65  E(vib)   ...       0.02 
freq.     990.66  E(vib)   ...       0.02 
freq.    1008.09  E(vib)   ...       0.02 
freq.    1022.74  E(vib)   ...       0.02 
freq.    1025.12  E(vib)   ...       0.02 
freq.    1037.66  E(vib)   ...       0.02 
freq.    1048.83  E(vib)   ...       0.02 
freq.    1049.24  E(vib)   ...       0.02 
freq.    1053.14  E(vib)   ...       0.02 
freq.    1064.67  E(vib)   ...       0.02 
freq.    1082.12  E(vib)   ...       0.02 
freq.    1098.52  E(vib)   ...       0.02 
freq.    1144.78  E(vib)   ...       0.01 
freq.    1156.63  E(vib)   ...       0.01 
freq.    1187.65  E(vib)   ...       0.01 
freq.    1191.41  E(vib)   ...       0.01 
freq.    1201.01  E(vib)   ...       0.01 
freq.    1202.21  E(vib)   ...       0.01 
freq.    1226.53  E(vib)   ...       0.01 
freq.    1230.58  E(vib)   ...       0.01 
freq.    1234.98  E(vib)   ...       0.01 
freq.    1264.58  E(vib)   ...       0.01 
freq.    1282.51  E(vib)   ...       0.01 
freq.    1301.19  E(vib)   ...       0.01 
freq.    1309.22  E(vib)   ...       0.01 
freq.    1333.13  E(vib)   ...       0.01 
freq.    1338.24  E(vib)   ...       0.01 
freq.    1340.74  E(vib)   ...       0.01 
freq.    1348.83  E(vib)   ...       0.01 
freq.    1366.45  E(vib)   ...       0.01 
freq.    1376.35  E(vib)   ...       0.01 
freq.    1383.77  E(vib)   ...       0.00 
freq.    1386.68  E(vib)   ...       0.00 
freq.    1394.63  E(vib)   ...       0.00 
freq.    1396.99  E(vib)   ...       0.00 
freq.    1409.36  E(vib)   ...       0.00 
freq.    1410.45  E(vib)   ...       0.00 
freq.    1418.79  E(vib)   ...       0.00 
freq.    1419.80  E(vib)   ...       0.00 
freq.    1427.53  E(vib)   ...       0.00 
freq.    1475.92  E(vib)   ...       0.00 
freq.    1485.55  E(vib)   ...       0.00 
freq.    1490.06  E(vib)   ...       0.00 
freq.    1491.73  E(vib)   ...       0.00 
freq.    1492.27  E(vib)   ...       0.00 
freq.    1494.09  E(vib)   ...       0.00 
freq.    1496.67  E(vib)   ...       0.00 
freq.    1498.61  E(vib)   ...       0.00 
freq.    1499.20  E(vib)   ...       0.00 
freq.    1501.62  E(vib)   ...       0.00 
freq.    1504.99  E(vib)   ...       0.00 
freq.    1509.20  E(vib)   ...       0.00 
freq.    1514.65  E(vib)   ...       0.00 
freq.    1519.67  E(vib)   ...       0.00 
freq.    1599.41  E(vib)   ...       0.00 
freq.    1610.09  E(vib)   ...       0.00 
freq.    1643.87  E(vib)   ...       0.00 
freq.    1652.90  E(vib)   ...       0.00 
freq.    1661.55  E(vib)   ...       0.00 
freq.    2938.18  E(vib)   ...       0.00 
freq.    2975.05  E(vib)   ...       0.00 
freq.    2975.54  E(vib)   ...       0.00 
freq.    2984.09  E(vib)   ...       0.00 
freq.    2989.05  E(vib)   ...       0.00 
freq.    2992.74  E(vib)   ...       0.00 
freq.    2996.82  E(vib)   ...       0.00 
freq.    2997.87  E(vib)   ...       0.00 
freq.    3002.09  E(vib)   ...       0.00 
freq.    3002.57  E(vib)   ...       0.00 
freq.    3018.27  E(vib)   ...       0.00 
freq.    3020.51  E(vib)   ...       0.00 
freq.    3020.68  E(vib)   ...       0.00 
freq.    3035.15  E(vib)   ...       0.00 
freq.    3042.44  E(vib)   ...       0.00 
freq.    3050.34  E(vib)   ...       0.00 
freq.    3059.90  E(vib)   ...       0.00 
freq.    3064.51  E(vib)   ...       0.00 
freq.    3076.03  E(vib)   ...       0.00 
freq.    3076.40  E(vib)   ...       0.00 
freq.    3079.77  E(vib)   ...       0.00 
freq.    3082.54  E(vib)   ...       0.00 
freq.    3089.88  E(vib)   ...       0.00 
freq.    3095.34  E(vib)   ...       0.00 
freq.    3103.16  E(vib)   ...       0.00 
freq.    3108.42  E(vib)   ...       0.00 
freq.    3110.17  E(vib)   ...       0.00 
freq.    3111.44  E(vib)   ...       0.00 
freq.    3131.05  E(vib)   ...       0.00 
freq.    3729.23  E(vib)   ...       0.00 

------------
INNER ENERGY
------------

The inner energy is: U= E(el) + E(ZPE) + E(vib) + E(rot) + E(trans)
    E(el)   - is the total energy from the electronic structure calculation
              = E(kin-el) + E(nuc-el) + E(el-el) + E(nuc-nuc)
    E(ZPE)  - the the zero temperature vibrational energy from the frequency calculation
    E(vib)  - the the finite temperature correction to E(ZPE) due to population
              of excited vibrational states
    E(rot)  - is the rotational thermal energy
    E(trans)- is the translational thermal energy

Summary of contributions to the inner energy U:
Electronic energy                ...   -854.95841459 Eh
Zero point energy                ...      0.44858289 Eh     281.49 kcal/mol
Thermal vibrational correction   ...      0.02149644 Eh      13.49 kcal/mol
Thermal rotational correction    ...      0.00141627 Eh       0.89 kcal/mol
Thermal translational correction ...      0.00141627 Eh       0.89 kcal/mol
-----------------------------------------------------------------------
Total thermal energy                   -854.48550271 Eh


Summary of corrections to the electronic energy:
(perhaps to be used in another calculation)
Total thermal correction                  0.02432898 Eh      15.27 kcal/mol
Non-thermal (ZPE) correction              0.44858289 Eh     281.49 kcal/mol
-----------------------------------------------------------------------
Total correction                          0.47291187 Eh     296.76 kcal/mol


--------
ENTHALPY
--------

The enthalpy is H = U + kB*T
                kB is Boltzmann's constant
Total thermal energy              ...   -854.48550271 Eh 
Thermal Enthalpy correction       ...      0.00094421 Eh       0.59 kcal/mol
-----------------------------------------------------------------------
Total Enthalpy                    ...   -854.48455850 Eh


Note: Only C1 symmetry has been detected, increase convergence thresholds 
      if your molecule has a higher symmetry. Symmetry factor of 1.0 is   
      used for the rotational entropy correction. 
 

Note: Rotational entropy computed according to Herzberg 
Infrared and Raman Spectra, Chapter V,1, Van Nostrand Reinhold, 1945 
Point Group:  C1, Symmetry Number:   1  
Rotational constants in cm-1:     0.027126     0.002608     0.002482 

Vibrational entropy computed according to the QRRHO of S. Grimme
Chem.Eur.J. 2012 18 9955 using a reference frequency of 100.0 cm-1


-------
ENTROPY
-------

The entropy contributions are T*S = T*(S(el)+S(vib)+S(rot)+S(trans))
     S(el)   - electronic entropy
     S(vib)  - vibrational entropy
     S(rot)  - rotational entropy
     S(trans)- translational entropy
The entropies will be listed as multiplied by the temperature to get
units of energy

Electronic entropy                ...      0.00000000 Eh      0.00 kcal/mol
Vibrational entropy               ...      0.03833879 Eh     24.06 kcal/mol
Rotational entropy                ...      0.01685411 Eh     10.58 kcal/mol
Translational entropy             ...      0.02036176 Eh     12.78 kcal/mol
-----------------------------------------------------------------------
Final entropy term                ...      0.07555466 Eh     47.41 kcal/mol

In case the symmetry of your molecule has not been determined correctly
or in case you have a reason to use a different symmetry number we print 
out the resulting rotational entropy values for sn=1,12:

 non-linear molecules -----------------------------------
|  sn= 1 | S(rot)=       0.01685411 Eh     10.58 kcal/mol|
|  sn= 2 | S(rot)=       0.01619966 Eh     10.17 kcal/mol|
|  sn= 3 | S(rot)=       0.01581683 Eh      9.93 kcal/mol|
|  sn= 4 | S(rot)=       0.01554520 Eh      9.75 kcal/mol|
|  sn= 5 | S(rot)=       0.01533451 Eh      9.62 kcal/mol|
|  sn= 6 | S(rot)=       0.01516237 Eh      9.51 kcal/mol|
|  sn= 7 | S(rot)=       0.01501682 Eh      9.42 kcal/mol|
|  sn= 8 | S(rot)=       0.01489075 Eh      9.34 kcal/mol|
|  sn= 9 | S(rot)=       0.01477954 Eh      9.27 kcal/mol|
|  sn=10 | S(rot)=       0.01468006 Eh      9.21 kcal/mol|
|  sn=11 | S(rot)=       0.01459007 Eh      9.16 kcal/mol|
|  sn=12 | S(rot)=       0.01450791 Eh      9.10 kcal/mol|
 linear molecules ---------------------------------------
|  Dinfh | S(rot)=       0.01098949 Eh      6.90 kcal/mol|
|  Cinfv | S(rot)=       0.01164395 Eh      7.31 kcal/mol|
 --------------------------------------------------------


-------------------
GIBBS FREE ENERGY
-------------------

The Gibbs free energy is G = H - T*S

Total enthalpy                    ...   -854.48455850 Eh 
Total entropy correction          ...     -0.07555466 Eh    -47.41 kcal/mol
-----------------------------------------------------------------------
Final Gibbs free energy         ...   -854.56011317 Eh

For completeness - the Gibbs free energy minus the electronic energy
G-E(el)                           ...      0.39830142 Eh    249.94 kcal/mol


Maximum memory used throughout the entire PROP-calculation: 135.0 MB

--------------------------------
SUGGESTED CITATIONS FOR THIS RUN
--------------------------------

Below you find a list of papers that are relevant to this ORCA run
We neither can nor want to force you to cite these papers, but we appreciate if you do
You receive ORCA, which is the product of decades of hard work by many enthusiastic individuals, for free
The only thing we kindly ask in return is that you cite our papers,
We deeply appreciate it, if you show your appreciation for ORCA by not just citing the generic ORCA reference.

Please note that relegating all ORCA citations to the supporting information does *not* help us.
SI sections are not indexed - citations you put there will not count into any citation statistics
But we need these citations in order to attract the funding resources that allow us to do what we are doing

Therefore, if you are a happy ORCA user, please consider citing a few of the papers listed below in the main body of your paper

In addition to the list printed below, the program has created the file m1_00_Vitamin_A-GFN1_003-B97-3C-TZ.bibtex that contains the list in bibtex format
You can import this file easily into all common literature databanks and citation aid programs


List of essential papers. We consider these as the minimum necessary citations

  1. Neese,F.
     Software update: the ORCA program system, version 5.0
     WIRES Comput. Molec. Sci., 2022 12(1)e1606
     doi.org/10.1002/wcms.1606

List of papers to cite with high priority. The work reported in these papers was absolutely
necessary for this run to complete.
Our perspective: the developers of density functionals and basis sets usually get cited in chemistry papers
Good! But without the algorithms to do something with them, the functionals or basis sets would not do anything.
Hence, in our opinion, the algorithm design and method developments papers are equally worthy of getting cited

  1. Neese,F.
     An improvement of the resolution of the identity approximation for the formation of the Coulomb matrix
     J. Comp. Chem., 2003 24(14)1740-1747
     doi.org/10.1002/jcc.10318
  2. Bykov,D.; Petrenko,T.; Izsak,R.; Kossmann,S.; Becker,U.; Valeev,E.; Neese,F.
     Efficient implementation of the analytic second derivatives of Hartree-Fock and hybrid DFT energies: a detailed analysis of different approximations
     Molec. Phys., 2015 113 1961-1977
     doi.org/10.1080/00268976.2015.1025114
  3. Neese,F.
     The SHARK Integral Generation and Digestion System
     J. Comp. Chem., 2022  1-16
     doi.org/10.1002/jcc.26942
  4. Grimme,S.; Antony,J.; Ehrlich,S.; Krieg,H.
     A consistent and accurate ab initio parametrization of density functional dispersion correction (DFT-D) for the 94 elements H-Pu
     J. Chem. Phys., 2010 132 154104
     doi.org/10.1063/1.3382344
  5. Grimme,S.; Ehrlich,S.; Goerigk,L.
     Effect of the damping function in dispersion corrected density functional theory
     J. Comput. Chem., 2011 32(7)1456-1465
     doi.org/10.1002/jcc.21759

List of suggested additional citations. These are papers that are important in the 'surrounding' of 
of this run, or papers that preceded the highly important papers. If you like your results we are grateful for a citation.

  1. Neese,F.
     The ORCA program system
     WIRES Comput. Molec. Sci., 2012 2(1)73-78
     doi.org/10.1002/wcms.81
  2. Neese,F.
     Software update: the ORCA program system, version 4.0
     WIRES Comput. Molec. Sci., 2018 8(1)1-6
     doi.org/10.1002/wcms.1327
  3. Neese,F.; Wennmohs,F.; Becker,U.; Riplinger,C.
     The ORCA quantum chemistry program package
     J. Chem. Phys., 2020 152 Art. No. L224108
     doi.org/10.1063/5.0004608

List of optional additional citations

  1. Neese,F.
     Approximate second-order SCF convergence for spin unrestricted wavefunctions
     Chem. Phys. Lett., 2000 325(1-3)93-98
     doi.org/10.1016/s0009-2614(00)00662-x

Timings for individual modules:

Sum of individual times          ...      653.653 sec (=  10.894 min)
Startup calculation              ...       66.838 sec (=   1.114 min)  10.2 %
SCF iterations                   ...      146.810 sec (=   2.447 min)  22.5 %
Property integrals               ...      127.078 sec (=   2.118 min)  19.4 %
SCF Response                     ...      168.672 sec (=   2.811 min)  25.8 %
Property calculations            ...       56.286 sec (=   0.938 min)   8.6 %
SCF Gradient evaluation          ...       87.773 sec (=   1.463 min)  13.4 %
Geometry relaxation              ...        0.196 sec (=   0.003 min)   0.0 %
                             ****ORCA TERMINATED NORMALLY****
TOTAL RUN TIME: 0 days 0 hours 10 minutes 56 seconds 828 msec
