
                                 *****************
                                 * O   R   C   A *
                                 *****************

                                            #,                                       
                                            ###                                      
                                            ####                                     
                                            #####                                    
                                            ######                                   
                                           ########,                                 
                                     ,,################,,,,,                         
                               ,,#################################,,                 
                          ,,##########################################,,             
                       ,#########################################, ''#####,          
                    ,#############################################,,   '####,        
                  ,##################################################,,,,####,       
                ,###########''''           ''''###############################       
              ,#####''   ,,,,##########,,,,          '''####'''          '####       
            ,##' ,,,,###########################,,,                        '##       
           ' ,,###''''                  '''############,,,                           
         ,,##''                                '''############,,,,        ,,,,,,###''
      ,#''                                            '''#######################'''  
     '                                                          ''''####''''         
             ,#######,   #######,   ,#######,      ##                                
            ,#'     '#,  ##    ##  ,#'     '#,    #''#        ,####,   ,####,        
            ##       ##  ##   ,#'  ##            #'  '#       #'       #'  '#        
            ##       ##  #######   ##           ,######,      #####,   #    #        
            '#,     ,#'  ##    ##  '#,     ,#' ,#      #,     #,   #   #,  ,#        
             '#######'   ##     ##  '#######'  #'      '#     '####' # '####'        



                #########################################################
                #                        -***-                          #
                #          Department of theory and spectroscopy        #
                #                                                       #
                #                      Frank Neese                      #
                #                                                       #
                #     Directorship, Architecture, Infrastructure        #
                #                    SHARK, DRIVERS                     #
                #        Core code/Algorithms in most modules           #
                #                                                       #
                #        Max Planck Institute fuer Kohlenforschung      #
                #                Kaiser Wilhelm Platz 1                 #
                #                 D-45470 Muelheim/Ruhr                 #
                #                      Germany                          #
                #                                                       #
                #                  All rights reserved                  #
                #                        -***-                          #
                #########################################################


                         Program Version 6.0.1  -  RELEASE   -


 With contributions from (in alphabetic order):
[Max-Planck-Institut fuer Kohlenforschung]                               
  Daniel Aravena         : Magnetic Suceptibility                        
  Michael Atanasov       : Ab Initio Ligand Field Theory (pilot matlab implementation)
  Alexander A. Auer      : GIAO ZORA, VPT2 properties, NMR spectrum      
  Ute Becker             : All parallelization in ORCA, NUMFREQ, NUMCALC 
  Giovanni Bistoni       : ED, misc. LED, open-shell LED, HFLD           
  Martin Brehm           : Molecular dynamics                            
  Dmytro Bykov           : pre 5.0 version of the SCF Hessian            
  Marcos Casanova-Páez   : Triplet and SCS-CIS(D). UHF-(DLPNO)-IP/EA/STEOM-CCSD. UHF-CVS-IP/STEOM-CCSD   
  Vijay G. Chilkuri      : MRCI spin determinant printing, contributions to CSF-ICE 
  Pauline Colinet        : FMM embedding                                 
  Dipayan Datta          : RHF DLPNO-CCSD density                        
  Achintya Kumar Dutta   : EOM-CC, STEOM-CC                              
  Nicolas Foglia         : Exact transition moments, OPA infrastructure, MCD improvements    
  Dmitry Ganyushin       : Spin-Orbit,Spin-Spin,Magnetic field MRCI      
  Miquel Garcia-Rates    : C-PCM and meta-GGA Hessian, CCSD/C-PCM, Gaussian charge scheme 
  Tiago L. C. Gouveia    : GS-ROHF, GS-ROCIS                             
  Yang Guo               : DLPNO-NEVPT2, F12-NEVPT2, CIM, IAO-localization        
  Andreas Hansen         : Spin unrestricted coupled pair/coupled cluster methods 
  Ingolf Harden          : AUTO-CI MPn and infrastructure                
  Benjamin Helmich-Paris : MC-RPA, TRAH-(SCF,CASSCF), AVAS, COSX integrals, SCF dyn. polar. 
  Lee Huntington         : MR-EOM, pCC                                   
  Robert Izsak           : Overlap fitted RIJCOSX, COSX-SCS-MP3, EOM     
  Riya Kayal             : Wick's Theorem for AUTO-CI, AUTO-CI UHF-CCSDT 
  Emily Kempfer          : AUTO-CI, RHF CISDT and CCSDT                  
  Christian Kollmar      : KDIIS, OOCD, Brueckner-CCSD(T), CCSD density, CASPT2, CASPT2-K, improved NEVPT2 
  Axel Koslowski         : Symmetry handling                             
  Simone Kossmann        : meta-GGA functionals, TD-DFT gradient, OOMP2, (MP2 Hessian; deprecated post 5.0) 
  Lucas Lang             : DCDCAS                                        
  Marvin Lechner         : AUTO-CI (C++ implementation), FIC-MRCC        
  Spencer Leger          : CASSCF response                               
  Dagmar Lenk            : GEPOL surface, SMD, ORCA-2-JSON               
  Dimitrios Liakos       : Extrapolation schemes; Compound Job, initial MDCI parallelization 
  Dimitrios Manganas     : Further ROCIS development; embedding schemes. LFT, Crystal Embedding 
  Dimitrios Pantazis     : SARC Basis sets                               
  Anastasios Papadopoulos: AUTO-CI, single reference methods and gradients 
  Taras Petrenko         : pre 6.0 DFT Hessian and TD-DFT gradient, (ASA, deprecated), ECA, 1-Electron XAS/XES, NRVS 
  Peter Pinski           : DLPNO-MP2, DLPNO-MP2 Gradient                 
  Christoph Reimann      : Effective Core Potentials                     
  Marius Retegan         : Local ZFS, SOC                                
  Christoph Riplinger    : Optimizer, TS searches, QM/MM, DLPNO-CCSD(T), (RO)-DLPNO pert. Triples 
  Michael Roemelt        : Original ROCIS implementation                 
  Masaaki Saitow         : Open-shell DLPNO-CCSD energy and density      
  Barbara Sandhoefer     : DKH picture change effects                    
  Kantharuban Sivalingam : CASSCF convergence/infrastructure, NEVPT2 and variants, FIC-MRCI 
  Bernardo de Souza      : ESD, SOC TD-DFT                               
  Georgi L. Stoychev     : AutoAux, RI-MP2 NMR, DLPNO-MP2 response, X2C  
  Van Anh Tran           : RI-MP2 g-tensors                              
  Willem Van den Heuvel  : Paramagnetic NMR                              
  Zikuan Wang            : NOTCH, Electric field optimization            
  Frank Wennmohs         : Technical directorship and infrastructure     
  Hang Xu                : AUTO-CI-Response properties                   
                                                                         
[FACCTs GmbH]                                                            
  Markus Bursch, Miquel Garcia-Rates, Christoph Riplinger, Bernardo de Souza, Georgi L. Stoychev 
                                                                 
  APM, Basis sets (HGBS, AHGBS, def-TZVP (Ac-Lr), def2-XVPD (La-Lu)), CI-OPT, improved COSX, DLPNO-Multilevel,           
  DOCKER, DRACO, updates on ESD, GOAT, IRC, LR-CPCM, MBIS, meta-GGA TD-DFT gradient, ML-optimized integration grids, 
  MM, NACMEs, nearIR, NEB, NEB-TS, NL-DFT gradient (VV10), 2- and 3-layer-ONIOM, interface openCOSMO-RS, QMMM,   
  Crystal-QMMM, SF, symmetry and pop. for TD-DFT, r2SCAN hybrids, SOLVATOR                                   
                                                                         
[Other institutions]                                                     
  V. Asgeirsson          : NEB                                           
  Christoph Bannwarth    : sTDA-DFT, sTD-DFT, PBEh-3c, B97-3c, D3        
  Sebastian Ehlert       : rSCAN, r2SCAN, r2SCAN-3c, D4, dhf basis sets  
  Marvin Friede          : D4 for Fr, Ra, Ac-Lr                          
  Lars Goerigk           : TD-DFT with DH, B97 family of functionals     
  Stefan Grimme          : VdW corrections, initial TS optimization, DFT functionals, gCP, sTDA/sTD-DF 
  Waldemar Hujo          : DFT-NL                                        
  H. Jonsson             : NEB                                           
  Holger Kruse           : gCP                                           
  Marcel Mueller         : wB97X-3c, vDZP basis set                      
  Hagen Neugebauer       : wr2SCAN                                       
  Tobias Risthaus        : range-separated hybrid DFT                    
  Lukas Wittmann         : regularized MP2, r2SCAN double-hybrids, wr2SCAN        
                                                                         
We gratefully acknowledge several colleagues who have allowed us to      
interface, adapt or use parts of their codes:                            
  Ed Valeev, F. Pavosevic, A. Kumar             : LibInt (2-el integral package), F12 methods 
  Garnet Chan, S. Sharma, J. Yang, R. Olivares  : DMRG                   
  Ulf Ekstrom                                   : XCFun DFT Library      
  Mihaly Kallay                                 : mrcc  (arbitrary order and MRCC methods)
  Frank Weinhold                                : gennbo (NPA and NBO analysis)           
  Simon Mueller                                 : openCOSMO-RS                            
  Christopher J. Cramer and Donald G. Truhlar   : smd solvation model                     
  S Lehtola, MJT Oliveira, MAL Marques          : LibXC Library                           
  Liviu Ungur et al                             : ANISO software                          


 Your calculation uses the libint2 library for the computation of 2-el integrals
 For citations please refer to: http://libint.valeyev.net

 Your ORCA version has been built with support for libXC version: 6.2.2
 For citations please refer to: https://libxc.gitlab.io

 This ORCA versions uses:
   CBLAS   interface :  Fast vector & matrix operations
   LAPACKE interface :  Fast linear algebra routines
   SCALAPACK package :  Parallel linear algebra routines
   Shared memory     :  Shared parallel matrices
   BLAS/LAPACK       :  OpenBLAS 0.3.27  USE64BITINT DYNAMIC_ARCH NO_AFFINITY Zen SINGLE_THREADED
        Core in use  :  Zen
   Copyright (c) 2011-2014, The OpenBLAS Project


NOTE: MaxCore=6000 MB was set to SCF,MP2,MDCI,CIPSI,MRCI and CIS
      => If you want to overwrite this, your respective input block should be placed after the MaxCore statement
Your calculation utilizes the atom-pairwise dispersion correction
with the Becke-Johnson damping scheme (D3BJ)


Your calculation employs the composite approach B97-3c by Grimme and coworkers.
For the correct reference, please check the publication list of the Grimme group:
http://www.thch.uni-bonn.de/tc/index.php?section=publikationen&subsection=grimme#2017
   

XCFun DFT library Copyright 2009-2010 Ulf Ekstrom and contributors.
See http://admol.org/xcfun for more information.
This is free software; see the source code for copying conditions.
There is ABSOLUTELY NO WARRANTY; not even for MERCHANTABILITY or FITNESS FOR A PARTICULAR PURPOSE.
For details see the documentation.
Scientific users of this library should cite U. Ekstrom, L. Visscher, R. Bast, A. J. Thorvaldsen and K. Ruud;
J.Chem.Theor.Comp. 2010, DOI: 10.1021/ct100117s
XCFun Version 0.99 

================================================================================

----- Orbital basis set information -----
Your calculation utilizes the basis: def2-mTZVP
----- AuxJ basis set information -----
Your calculation utilizes the basis: def2-mTZVP/J
================================================================================
                                        WARNINGS
                       Please study these warnings very carefully!
================================================================================


WARNING: Geometry Optimization
  ===> : Switching off AutoStart
         For restart on a previous wavefunction, please use MOREAD

================================================================================
                                       INPUT FILE
================================================================================
NAME = m1_00_Vitamin_A-GFN1_053-B97-3C-TZ.inp
|  1> %pal nprocs 16 end
|  2> %MaxCore 6000
|  3> # put your comments here
|  4> ! B97-3C  OPT  FREQ DEFGRID3 NOTRAH
|  5> %scf MaxIter 800 end
|  6> %output
|  7> Print [P_Hirshfeld] 1
|  8> end
|  9> %geom
| 10> MaxIter 3000
| 11>  TolE 1e-6 #TolE 5e-6 Energy change (a.u.)
| 12>  TolRMSG 3e-5 #TolRMSG 1e-4 RMS gradient (a.u.)
| 13>  TolMaxG 1e-4 #TolMaxG 3e-3 Max. element of gradient (a.u.)
| 14>  TolRMSD 2e-3 #TolRMSD 2e-3 RMS displacement (a.u.)
| 15>  TolMaxD 4e-3 #TolMaxD 4e-3 Max. displacement (a.u.)
| 16> end
| 17> * xyz 0 1
| 18>  O 8.46956349903289 0.66537642067506 1.31233899783533
| 19>  C -3.24435629160294 1.72756699319133 3.75323212829713
| 20>  C -4.78037972714432 1.67387296884285 3.65832794358063
| 21>  C -5.25780141925436 1.47175320141792 2.22356469373954
| 22>  C -2.58245262061113 0.70285526168836 2.83152370277218
| 23>  C -4.75427597730515 0.12103501394806 1.72493348345975
| 24>  C -3.26895265236273 -0.02994400578451 1.94111478926695
| 25>  C -2.86494690354610 1.46452374368357 5.22312967191706
| 26>  C -2.74201989659664 3.12674130228748 3.35173278185691
| 27>  C -1.12390872264057 0.61234510811925 2.96438536581912
| 28>  C -2.65252873123680 -1.12199702437985 1.10426809391233
| 29>  C -0.26983704033874 0.63360358084496 1.92182418674200
| 30>  C 1.17293132778617 0.57338945148675 2.01091158986025
| 31>  C 1.78552506316049 0.42624204755454 3.37790447640042
| 32>  C 1.90052080381071 0.65321547722313 0.86498272191339
| 33>  C 3.32680545544028 0.61874185019969 0.73645411966391
| 34>  C 3.94276418951045 0.70056053123899 -0.46545462045370
| 35>  C 5.37479009362648 0.67727544032836 -0.71051859506109
| 36>  C 5.75464201022738 0.72113397551435 -2.17149806820410
| 37>  C 6.29250981013610 0.61740927682464 0.26878275683765
| 38>  C 7.78784939978265 0.58661002370802 0.08002687344713
| 39>  H -5.19781798730822 2.59900316850792 4.06749370014067
| 40>  H -5.15116318744073 0.84503372930014 4.27129509447847
| 41>  H -4.87819704891343 2.27115708196641 1.57954464648981
| 42>  H -6.35057795921927 1.49982017236995 2.18656348456428
| 43>  H -4.97412349962851 0.00822186207828 0.65798048455729
| 44>  H -5.28192685066635 -0.68622795465279 2.24834311054105
| 45>  H -3.03954681953661 0.41915303199721 5.47892715307235
| 46>  H -1.81931792732376 1.70328097061552 5.41498870616896
| 47>  H -3.47709247362645 2.08872110144543 5.87553648424856
| 48>  H -3.16545443545155 3.88632412875341 4.01003119769862
| 49>  H -1.65470735708801 3.17028630829519 3.42190080754534
| 50>  H -3.02786928804674 3.35480921227048 2.32469038871823
| 51>  H -0.73341048494964 0.58382217729578 3.97659183804366
| 52>  H -3.32791200116586 -1.97926108854424 1.06355319508929
| 53>  H -1.69670264274884 -1.45063713334289 1.51196355726160
| 54>  H -2.49229759198530 -0.77766108410266 0.08037632018443
| 55>  H -0.66998514250702 0.73322496950208 0.91582934581485
| 56>  H 2.87014183294185 0.34946659060310 3.33403446458946
| 57>  H 1.53002836507130 1.28691596532427 3.99975259003709
| 58>  H 1.40045478330999 -0.46972249539729 3.86874344910861
| 59>  H 1.35260575631128 0.75591176985466 -0.07016248562581
| 60>  H 3.91812530413778 0.52229555324996 1.64143355333791
| 61>  H 3.32366274331628 0.78929664187614 -1.35576225852661
| 62>  H 5.36361069341445 -0.16105760560483 -2.68226939774888
| 63>  H 6.83339218018903 0.75034171458662 -2.31683583668559
| 64>  H 5.31758293219371 1.60219735111170 -2.64532252942656
| 65>  H 5.98256379411410 0.57839416483475 1.30830493481159
| 66>  H 8.11204795809657 1.40224673199971 -0.59106068343585
| 67>  H 8.09483977177793 -0.36251641239119 -0.38052576659203
| 68>  H 8.21164891286525 1.46833173759406 1.78183035793762
| 69> *
| 70> 
| 71> 
| 72> 
| 73> 
| 74>                          ****END OF INPUT****
================================================================================

                       *****************************
                       * Geometry Optimization Run *
                       *****************************

Geometry optimization settings:
Update method            Update   .... BFGS
Choice of coordinates    CoordSys .... (2022) Redundant Internals
Initial Hessian          InHess   .... Almloef's Model
Max. no of cycles        MaxIter  .... 3000

Convergence Tolerances:
Energy Change            TolE     ....  1.0000e-06 Eh
Max. Gradient            TolMAXG  ....  1.0000e-04 Eh/bohr
RMS Gradient             TolRMSG  ....  3.0000e-05 Eh/bohr
Max. Displacement        TolMAXD  ....  4.0000e-03 bohr
RMS Displacement         TolRMSD  ....  2.0000e-03 bohr
Strict Convergence                .... False

------------------------------------------------------------------------------
                        ORCA OPTIMIZATION COORDINATE SETUP
------------------------------------------------------------------------------

The optimization will be done in redundant internal coordinates (2022)
Making redundant internal coordinates   ...  (2022 redundants) done
Evaluating the initial hessian          ...  (Almloef) done
Evaluating the coordinates              ...  done
Calculating the B-matrix                .... done
Calculating the G-matrix                .... done
Diagonalizing the G-matrix              .... done
Small eigenvalue found = 9.355e-04
Small eigenvalue found = 3.306e-03
Small eigenvalue found = 4.569e-03
Small eigenvalue found = 6.027e-03
Small eigenvalue found = 1.215e-02
Small eigenvalue found = 1.756e-02
Small eigenvalue found = 2.228e-02
Small eigenvalue found = 2.697e-02
The first mode is                       ....   94
The number of degrees of freedom        ....  147

    -----------------------------------------------------------------
                    Redundant Internal Coordinates


    -----------------------------------------------------------------
         Definition                    Initial Value    Approx d2E/dq
    -----------------------------------------------------------------
      1. B(C   2,C   1)                  1.5399         0.360247   
      2. B(C   3,C   2)                  1.5256         0.379720   
      3. B(C   4,C   1)                  1.5290         0.375014   
      4. B(C   5,C   3)                  1.5253         0.380049   
      5. B(C   6,C   5)                  1.5085         0.404207   
      6. B(C   6,C   4)                  1.3421         0.745136   
      7. B(C   7,C   1)                  1.5407         0.359181   
      8. B(C   8,C   1)                  1.5399         0.360258   
      9. B(C   9,C   4)                  1.4674         0.470207   
     10. B(C  10,C   6)                  1.5076         0.405610   
     11. B(C  11,C   9)                  1.3479         0.729311   
     12. B(C  12,C  11)                  1.4468         0.507184   
     13. B(C  13,C  12)                  1.5052         0.409225   
     14. B(C  14,C  12)                  1.3597         0.698241   
     15. B(C  15,C  14)                  1.4325         0.534523   
     16. B(C  16,C  15)                  1.3530         0.715691   
     17. B(C  17,C  16)                  1.4530         0.495653   
     18. B(C  18,C  17)                  1.5102         0.401776   
     19. B(C  19,C  17)                  1.3434         0.741354   
     20. B(C  20,C  19)                  1.5075         0.405735   
     21. B(C  20,O   0)                  1.4105         0.518988   
     22. B(H  21,C   2)                  1.0943         0.354430   
     23. B(H  22,C   2)                  1.0955         0.352860   
     24. B(H  23,C   3)                  1.0945         0.354209   
     25. B(H  24,C   3)                  1.0938         0.355156   
     26. B(H  25,C   5)                  1.0952         0.353295   
     27. B(H  26,C   5)                  1.0973         0.350584   
     28. B(H  27,C   7)                  1.0903         0.359726   
     29. B(H  28,C   7)                  1.0896         0.360674   
     30. B(H  29,C   7)                  1.0909         0.358962   
     31. B(H  30,C   8)                  1.0907         0.359179   
     32. B(H  31,C   8)                  1.0904         0.359513   
     33. B(H  32,C   8)                  1.0902         0.359833   
     34. B(H  33,C   9)                  1.0853         0.366379   
     35. B(H  34,C  10)                  1.0921         0.357321   
     36. B(H  35,C  10)                  1.0899         0.360268   
     37. B(H  36,C  10)                  1.0921         0.357385   
     38. B(H  37,C  11)                  1.0872         0.363783   
     39. B(H  38,C  13)                  1.0882         0.362469   
     40. B(H  39,C  13)                  1.0921         0.357302   
     41. B(H  40,C  13)                  1.0918         0.357770   
     42. B(H  41,C  14)                  1.0887         0.361832   
     43. B(H  42,C  15)                  1.0853         0.366326   
     44. B(H  43,C  16)                  1.0880         0.362716   
     45. B(H  44,C  18)                  1.0918         0.357710   
     46. B(H  45,C  18)                  1.0889         0.361573   
     47. B(H  46,C  18)                  1.0917         0.357862   
     48. B(H  47,C  19)                  1.0854         0.366174   
     49. B(H  48,C  20)                  1.1049         0.340963   
     50. B(H  49,C  20)                  1.0987         0.348743   
     51. B(H  50,O   0)                  0.9652         0.510052   
     52. A(C  20,O   0,H  50)          110.0148         0.357853   
     53. A(C   2,C   1,C   7)          107.3667         0.358696   
     54. A(C   2,C   1,C   4)          111.7961         0.361342   
     55. A(C   7,C   1,C   8)          108.8777         0.358698   
     56. A(C   4,C   1,C   7)          110.7384         0.361159   
     57. A(C   4,C   1,C   8)          108.0931         0.361344   
     58. A(C   2,C   1,C   8)          109.9386         0.358879   
     59. A(C   1,C   2,H  21)          109.1462         0.321555   
     60. A(H  21,C   2,H  22)          107.5349         0.289193   
     61. A(C   1,C   2,H  22)          109.2384         0.321321   
     62. A(C   1,C   2,C   3)          112.0086         0.362112   
     63. A(C   3,C   2,H  22)          108.6667         0.324106   
     64. A(C   3,C   2,H  21)          110.1375         0.324342   
     65. A(C   2,C   3,C   5)          108.7513         0.365439   
     66. A(C   5,C   3,H  23)          109.8728         0.324355   
     67. A(H  23,C   3,H  24)          107.9310         0.289459   
     68. A(C   5,C   3,H  24)          109.9669         0.324498   
     69. A(C   2,C   3,H  24)          109.9428         0.324452   
     70. A(C   2,C   3,H  23)          110.3706         0.324309   
     71. A(C   1,C   4,C   9)          114.6493         0.378267   
     72. A(C   6,C   4,C   9)          122.3333         0.426901   
     73. A(C   1,C   4,C   6)          122.9882         0.410037   
     74. A(H  25,C   5,H  26)          107.0012         0.288755   
     75. A(C   3,C   5,H  25)          110.0856         0.324218   
     76. A(C   6,C   5,H  26)          109.3585         0.327106   
     77. A(C   3,C   5,H  26)          109.6821         0.323808   
     78. A(C   6,C   5,H  25)          109.0836         0.327522   
     79. A(C   3,C   5,C   6)          111.5189         0.369377   
     80. A(C   4,C   6,C   5)          122.9622         0.415530   
     81. A(C   5,C   6,C  10)          113.2992         0.373539   
     82. A(C   4,C   6,C  10)          123.6867         0.415786   
     83. A(H  28,C   7,H  29)          107.9285         0.290768   
     84. A(H  27,C   7,H  29)          108.5695         0.290647   
     85. A(H  27,C   7,H  28)          108.8127         0.290865   
     86. A(C   1,C   7,H  28)          111.5253         0.322320   
     87. A(C   1,C   7,H  27)          110.3709         0.322181   
     88. A(C   1,C   7,H  29)          109.5543         0.322068   
     89. A(H  30,C   8,H  32)          108.7301         0.290689   
     90. A(C   1,C   8,H  32)          110.4982         0.322354   
     91. A(H  30,C   8,H  31)          108.6908         0.290648   
     92. A(C   1,C   8,H  31)          110.1688         0.322307   
     93. A(C   1,C   8,H  30)          110.4122         0.322258   
     94. A(H  31,C   8,H  32)          108.2831         0.290731   
     95. A(C  11,C   9,H  33)          119.5914         0.363862   
     96. A(C   4,C   9,H  33)          116.3408         0.337868   
     97. A(C   4,C   9,C  11)          123.9738         0.425264   
     98. A(H  34,C  10,H  36)          107.6552         0.290141   
     99. A(C   6,C  10,H  36)          110.6114         0.328332   
    100. A(H  34,C  10,H  35)          108.6392         0.290507   
    101. A(C   6,C  10,H  35)          111.6767         0.328767   
    102. A(C   6,C  10,H  34)          109.6598         0.328322   
    103. A(H  35,C  10,H  36)          108.4892         0.290515   
    104. A(C   9,C  11,C  12)          125.7039         0.431075   
    105. A(C  12,C  11,H  37)          115.3290         0.341762   
    106. A(C   9,C  11,H  37)          118.9418         0.363420   
    107. A(C  13,C  12,C  14)          123.5964         0.411661   
    108. A(C  11,C  12,C  14)          118.6380         0.427721   
    109. A(C  11,C  12,C  13)          117.7655         0.389139   
    110. A(H  39,C  13,H  40)          107.9529         0.290188   
    111. A(H  38,C  13,H  40)          108.1655         0.290842   
    112. A(C  12,C  13,H  40)          110.1809         0.328871   
    113. A(H  38,C  13,H  39)          108.1633         0.290783   
    114. A(C  12,C  13,H  39)          110.1733         0.328800   
    115. A(C  12,C  13,H  38)          112.0816         0.329581   
    116. A(C  12,C  14,C  15)          127.3715         0.431770   
    117. A(C  15,C  14,H  41)          115.2331         0.344472   
    118. A(C  12,C  14,H  41)          117.3954         0.360399   
    119. A(C  14,C  15,C  16)          122.1085         0.433690   
    120. A(C  16,C  15,H  42)          119.8704         0.362683   
    121. A(C  14,C  15,H  42)          118.0210         0.345187   
    122. A(C  15,C  16,C  17)          126.6921         0.427850   
    123. A(C  17,C  16,H  43)          115.0928         0.340283   
    124. A(C  15,C  16,H  43)          118.2146         0.362070   
    125. A(C  18,C  17,C  19)          122.3217         0.414709   
    126. A(C  16,C  17,C  19)          123.4363         0.430563   
    127. A(C  16,C  17,C  18)          114.2417         0.386341   
    128. A(H  45,C  18,H  46)          108.4841         0.290741   
    129. A(H  44,C  18,H  46)          107.7990         0.290251   
    130. A(C  17,C  18,H  46)          110.0368         0.327890   
    131. A(H  44,C  18,H  45)          108.3032         0.290722   
    132. A(C  17,C  18,H  45)          112.2772         0.328448   
    133. A(C  17,C  18,H  44)          109.8175         0.327867   
    134. A(C  17,C  19,C  20)          125.9608         0.415433   
    135. A(C  20,C  19,H  47)          113.7294         0.329668   
    136. A(C  17,C  19,H  47)          120.3082         0.364848   
    137. A(O   0,C  20,C  19)          111.6462         0.387643   
    138. A(H  48,C  20,H  49)          107.5251         0.286919   
    139. A(C  19,C  20,H  49)          110.3211         0.327026   
    140. A(O   0,C  20,H  49)          106.2252         0.338594   
    141. A(C  19,C  20,H  48)          110.6113         0.325813   
    142. A(O   0,C  20,H  48)          110.3416         0.337323   
    143. D(C   3,C   2,C   1,C   7)   -161.6475         0.010411   
    144. D(C   3,C   2,C   1,C   8)     80.0539         0.010411   
    145. D(H  21,C   2,C   1,C   8)    -42.1823         0.010411   
    146. D(C   3,C   2,C   1,C   4)    -40.0032         0.010411   
    147. D(H  21,C   2,C   1,C   7)     76.1164         0.010411   
    148. D(H  21,C   2,C   1,C   4)   -162.2393         0.010411   
    149. D(C   5,C   3,C   2,H  22)    -57.7875         0.011493   
    150. D(H  23,C   3,C   2,H  22)   -178.3840         0.011493   
    151. D(C   5,C   3,C   2,C   1)     62.9885         0.011493   
    152. D(H  23,C   3,C   2,C   1)    -57.6079         0.011493   
    153. D(H  23,C   3,C   2,H  21)     64.0609         0.011493   
    154. D(C   5,C   3,C   2,H  21)   -175.3426         0.011493   
    155. D(C   6,C   4,C   1,C   8)   -113.7354         0.010512   
    156. D(C   6,C   4,C   1,C   7)    127.0772         0.010512   
    157. D(C   6,C   4,C   1,C   2)      7.3974         0.010512   
    158. D(C   9,C   4,C   1,C   2)   -174.5282         0.010512   
    159. D(C   9,C   4,C   1,C   7)    -54.8485         0.010512   
    160. D(H  25,C   5,C   3,C   2)   -172.7922         0.011511   
    161. D(H  25,C   5,C   3,H  23)    -51.8892         0.011511   
    162. D(C   6,C   5,C   3,H  24)   -172.0045         0.011511   
    163. D(C   6,C   5,C   3,C   2)    -51.5684         0.011511   
    164. D(H  25,C   5,C   3,H  24)     66.7718         0.011511   
    165. D(C   6,C   5,C   3,H  23)     69.3346         0.011511   
    166. D(C   4,C   6,C   5,H  26)   -100.9862         0.012114   
    167. D(C   4,C   6,C   5,H  25)    142.3030         0.012114   
    168. D(C   4,C   6,C   5,C   3)     20.4979         0.012114   
    169. D(C  10,C   6,C   4,C   9)      7.2249         0.039547   
    170. D(C  10,C   6,C   4,C   1)   -174.8465         0.039547   
    171. D(C   5,C   6,C   4,C   9)   -175.5754         0.039547   
    172. D(C  10,C   6,C   5,C   3)   -162.0389         0.012114   
    173. D(C   5,C   6,C   4,C   1)      2.3532         0.039547   
    174. D(C  10,C   6,C   5,H  25)    -40.2338         0.012114   
    175. D(H  28,C   7,C   1,C   8)    -48.3502         0.010354   
    176. D(H  28,C   7,C   1,C   4)     70.3630         0.010354   
    177. D(H  28,C   7,C   1,C   2)   -167.3332         0.010354   
    178. D(H  27,C   7,C   1,C   8)   -169.4301         0.010354   
    179. D(H  27,C   7,C   1,C   4)    -50.7169         0.010354   
    180. D(H  27,C   7,C   1,C   2)     71.5868         0.010354   
    181. D(H  31,C   8,C   1,C   7)     62.3865         0.010411   
    182. D(H  31,C   8,C   1,C   4)    -57.9725         0.010411   
    183. D(H  31,C   8,C   1,C   2)    179.7484         0.010411   
    184. D(H  30,C   8,C   1,C   7)    -57.6769         0.010411   
    185. D(H  30,C   8,C   1,C   4)   -178.0359         0.010411   
    186. D(H  30,C   8,C   1,C   2)     59.6850         0.010411   
    187. D(H  33,C   9,C   4,C   6)   -136.7100         0.015055   
    188. D(H  33,C   9,C   4,C   1)     45.2016         0.015055   
    189. D(C  11,C   9,C   4,C   6)     46.8395         0.015055   
    190. D(C  11,C   9,C   4,C   1)   -131.2489         0.015055   
    191. D(H  36,C  10,C   6,C   4)   -103.3311         0.012195   
    192. D(H  35,C  10,C   6,C   5)   -159.8366         0.012195   
    193. D(H  35,C  10,C   6,C   4)     17.6055         0.012195   
    194. D(H  34,C  10,C   6,C   5)    -39.3577         0.012195   
    195. D(H  34,C  10,C   6,C   4)    138.0844         0.012195   
    196. D(H  37,C  11,C   9,H  33)   -175.7101         0.037733   
    197. D(H  37,C  11,C   9,C   4)      0.6316         0.037733   
    198. D(C  12,C  11,C   9,H  33)      2.3701         0.037733   
    199. D(C  12,C  11,C   9,C   4)    178.7118         0.037733   
    200. D(C  14,C  12,C  11,H  37)      0.4571         0.017528   
    201. D(C  14,C  12,C  11,C   9)   -177.6841         0.017528   
    202. D(C  13,C  12,C  11,H  37)   -179.6032         0.017528   
    203. D(C  13,C  12,C  11,C   9)      2.2555         0.017528   
    204. D(H  38,C  13,C  12,C  14)     -2.4193         0.012405   
    205. D(H  38,C  13,C  12,C  11)    177.6443         0.012405   
    206. D(H  40,C  13,C  12,C  11)     57.1431         0.012405   
    207. D(H  39,C  13,C  12,C  14)    118.0739         0.012405   
    208. D(H  39,C  13,C  12,C  11)    -61.8626         0.012405   
    209. D(H  41,C  14,C  12,C  13)    179.8535         0.034323   
    210. D(H  41,C  14,C  12,C  11)     -0.2106         0.034323   
    211. D(C  15,C  14,C  12,C  13)     -0.1868         0.034323   
    212. D(C  15,C  14,C  12,C  11)    179.7491         0.034323   
    213. D(H  42,C  15,C  14,H  41)    179.7075         0.019511   
    214. D(H  42,C  15,C  14,C  12)     -0.2529         0.019511   
    215. D(C  16,C  15,C  14,H  41)     -0.3710         0.019511   
    216. D(C  16,C  15,C  14,C  12)    179.6686         0.019511   
    217. D(H  43,C  16,C  15,H  42)    179.5608         0.036214   
    218. D(H  43,C  16,C  15,C  14)     -0.3593         0.036214   
    219. D(C  17,C  16,C  15,H  42)     -0.1554         0.036214   
    220. D(C  17,C  16,C  15,C  14)    179.9246         0.036214   
    221. D(C  19,C  17,C  16,H  43)    177.7185         0.016731   
    222. D(C  19,C  17,C  16,C  15)     -2.5577         0.016731   
    223. D(C  18,C  17,C  16,H  43)     -2.4967         0.016731   
    224. D(C  18,C  17,C  16,C  15)    177.2271         0.016731   
    225. D(H  46,C  18,C  17,C  16)     56.3264         0.011975   
    226. D(H  45,C  18,C  17,C  19)     -2.9494         0.011975   
    227. D(H  45,C  18,C  17,C  16)    177.2631         0.011975   
    228. D(H  44,C  18,C  17,C  19)    117.6060         0.011975   
    229. D(H  44,C  18,C  17,C  16)    -62.1815         0.011975   
    230. D(H  47,C  19,C  17,C  18)   -179.4601         0.039109   
    231. D(H  47,C  19,C  17,C  16)      0.3078         0.039109   
    232. D(C  20,C  19,C  17,C  18)      0.0526         0.039109   
    233. D(C  20,C  19,C  17,C  16)    179.8204         0.039109   
    234. D(H  49,C  20,C  19,C  17)    -68.3425         0.012202   
    235. D(H  48,C  20,C  19,H  47)   -129.9631         0.012202   
    236. D(H  48,C  20,C  19,C  17)     50.4965         0.012202   
    237. D(O   0,C  20,C  19,H  47)     -6.6765         0.012202   
    238. D(O   0,C  20,C  19,C  17)    173.7831         0.012202   
    239. D(H  49,C  20,O   0,H  50)   -177.8100         0.021351   
    240. D(H  48,C  20,O   0,H  50)     65.9355         0.021351   
    241. D(C  19,C  20,O   0,H  50)    -57.5041         0.021351   
    -----------------------------------------------------------------

Number of atoms                         .... 51
Number of degrees of freedom            .... 241


         *************************************************************
         *                GEOMETRY OPTIMIZATION CYCLE   1            *
         *************************************************************
---------------------------------
CARTESIAN COORDINATES (ANGSTROEM)
---------------------------------
  O      8.469563    0.665376    1.312339
  C     -3.244356    1.727567    3.753232
  C     -4.780380    1.673873    3.658328
  C     -5.257801    1.471753    2.223565
  C     -2.582453    0.702855    2.831524
  C     -4.754276    0.121035    1.724933
  C     -3.268953   -0.029944    1.941115
  C     -2.864947    1.464524    5.223130
  C     -2.742020    3.126741    3.351733
  C     -1.123909    0.612345    2.964385
  C     -2.652529   -1.121997    1.104268
  C     -0.269837    0.633604    1.921824
  C      1.172931    0.573389    2.010912
  C      1.785525    0.426242    3.377904
  C      1.900521    0.653215    0.864983
  C      3.326805    0.618742    0.736454
  C      3.942764    0.700561   -0.465455
  C      5.374790    0.677275   -0.710519
  C      5.754642    0.721134   -2.171498
  C      6.292510    0.617409    0.268783
  C      7.787849    0.586610    0.080027
  H     -5.197818    2.599003    4.067494
  H     -5.151163    0.845034    4.271295
  H     -4.878197    2.271157    1.579545
  H     -6.350578    1.499820    2.186563
  H     -4.974123    0.008222    0.657980
  H     -5.281927   -0.686228    2.248343
  H     -3.039547    0.419153    5.478927
  H     -1.819318    1.703281    5.414989
  H     -3.477092    2.088721    5.875536
  H     -3.165454    3.886324    4.010031
  H     -1.654707    3.170286    3.421901
  H     -3.027869    3.354809    2.324690
  H     -0.733410    0.583822    3.976592
  H     -3.327912   -1.979261    1.063553
  H     -1.696703   -1.450637    1.511964
  H     -2.492298   -0.777661    0.080376
  H     -0.669985    0.733225    0.915829
  H      2.870142    0.349467    3.334034
  H      1.530028    1.286916    3.999753
  H      1.400455   -0.469722    3.868743
  H      1.352606    0.755912   -0.070162
  H      3.918125    0.522296    1.641434
  H      3.323663    0.789297   -1.355762
  H      5.363611   -0.161058   -2.682269
  H      6.833392    0.750342   -2.316836
  H      5.317583    1.602197   -2.645323
  H      5.982564    0.578394    1.308305
  H      8.112048    1.402247   -0.591061
  H      8.094840   -0.362516   -0.380526
  H      8.211649    1.468332    1.781830

----------------------------
CARTESIAN COORDINATES (A.U.)
----------------------------
  NO LB      ZA    FRAG     MASS         X           Y           Z
   0 O     8.0000    0    15.999   16.005155    1.257379    2.479961
   1 C     6.0000    0    12.011   -6.130945    3.264628    7.092581
   2 C     6.0000    0    12.011   -9.033609    3.163161    6.913238
   3 C     6.0000    0    12.011   -9.935805    2.781210    4.201928
   4 C     6.0000    0    12.011   -4.880128    1.328204    5.350804
   5 C     6.0000    0    12.011   -8.984280    0.228723    3.259652
   6 C     6.0000    0    12.011   -6.177425   -0.056586    3.668175
   7 C     6.0000    0    12.011   -5.413965    2.767549    9.870285
   8 C     6.0000    0    12.011   -5.181667    5.908685    6.333857
   9 C     6.0000    0    12.011   -2.123880    1.157165    5.601876
  10 C     6.0000    0    12.011   -5.012553   -2.120267    2.086764
  11 C     6.0000    0    12.011   -0.509918    1.197337    3.631721
  12 C     6.0000    0    12.011    2.216519    1.083549    3.800072
  13 C     6.0000    0    12.011    3.374153    0.805481    6.383314
  14 C     6.0000    0    12.011    3.591464    1.234398    1.634580
  15 C     6.0000    0    12.011    6.286751    1.169253    1.391697
  16 C     6.0000    0    12.011    7.450745    1.323868   -0.879582
  17 C     6.0000    0    12.011   10.156881    1.279865   -1.342686
  18 C     6.0000    0    12.011   10.874697    1.362746   -4.103537
  19 C     6.0000    0    12.011   11.891120    1.166734    0.507926
  20 C     6.0000    0    12.011   14.716903    1.108532    0.151229
  21 H     1.0000    0     1.008   -9.822452    4.911404    7.686449
  22 H     1.0000    0     1.008   -9.734288    1.596882    8.071578
  23 H     1.0000    0     1.008   -9.218456    4.291865    2.984907
  24 H     1.0000    0     1.008  -12.000853    2.834249    4.132006
  25 H     1.0000    0     1.008   -9.399731    0.015537    1.243403
  26 H     1.0000    0     1.008   -9.981395   -1.296783    4.248753
  27 H     1.0000    0     1.008   -5.743911    0.792084   10.353672
  28 H     1.0000    0     1.008   -3.438013    3.218735   10.232846
  29 H     1.0000    0     1.008   -6.570753    3.947111   11.103155
  30 H     1.0000    0     1.008   -5.981842    7.344088    7.577861
  31 H     1.0000    0     1.008   -3.126944    5.990973    6.466455
  32 H     1.0000    0     1.008   -5.721844    6.339671    4.393028
  33 H     1.0000    0     1.008   -1.385945    1.103264    7.514670
  34 H     1.0000    0     1.008   -6.288842   -3.740261    2.009824
  35 H     1.0000    0     1.008   -3.206303   -2.741307    2.857197
  36 H     1.0000    0     1.008   -4.709760   -1.469566    0.151889
  37 H     1.0000    0     1.008   -1.266088    1.385594    1.730667
  38 H     1.0000    0     1.008    5.423782    0.660396    6.300412
  39 H     1.0000    0     1.008    2.891335    2.431919    7.558437
  40 H     1.0000    0     1.008    2.646476   -0.887647    7.310866
  41 H     1.0000    0     1.008    2.556054    1.428466   -0.132588
  42 H     1.0000    0     1.008    7.404184    0.986996    3.101860
  43 H     1.0000    0     1.008    6.280812    1.491554   -2.562019
  44 H     1.0000    0     1.008   10.135755   -0.304355   -5.068755
  45 H     1.0000    0     1.008   12.913240    1.417940   -4.378185
  46 H     1.0000    0     1.008   10.048775    3.027714   -4.998935
  47 H     1.0000    0     1.008   11.305407    1.093007    2.472338
  48 H     1.0000    0     1.008   15.329549    2.649862   -1.116943
  49 H     1.0000    0     1.008   15.297030   -0.685057   -0.719089
  50 H     1.0000    0     1.008   15.517768    2.774745    3.367171

--------------------------------
INTERNAL COORDINATES (ANGSTROEM)
--------------------------------
 O      0   0   0     0.000000000000     0.00000000     0.00000000
 C      1   0   0    12.012581943451     0.00000000     0.00000000
 C      2   1   0     1.539888907376   163.15328671     0.00000000
 C      3   2   1     1.525558735538   112.00857937   342.53834823
 C      2   1   3     1.528952917534    52.84994278    26.52432856
 C      4   3   2     1.525323105613   108.75131636    62.98849283
 C      5   2   1     1.342052567247   122.98816513   195.40989249
 C      2   1   5     1.540695305243    86.48126458   119.45178876
 C      2   1   5     1.539880620754    73.09752960   230.39734618
 C      5   2   1     1.467376779056   114.64932790    13.48423096
 C      7   5   2     1.507604270850   123.68667215   185.15346045
 C     10   5   2     1.347896202714   123.97375423   228.75114215
 C     12  10   5     1.446769805750   125.70388481   178.71182124
 C     13  12  10     1.505188690814   117.76552686     2.25552823
 C     13  12  10     1.359746892036   118.63803828   182.31586697
 C     15  13  12     1.432478949245   127.37151024   179.74906635
 C     16  15  13     1.353027744806   122.10849609   179.66856067
 C     17  16  15     1.453030191417   126.69211567   179.92455450
 C     18  17  16     1.510189415471   114.24165879   177.22709760
 C     18  17  16     1.343437595660   123.43629126   357.44228619
 C      1   2   3     1.410507508070    73.21190517    19.55751400
 H      3   2   1     1.094320430095   109.14621141   220.30221770
 H      3   2   1     1.095528907658   109.23837708   102.98254181
 H      4   3   2     1.094489773126   110.37056468   302.39206209
 H      4   3   2     1.093762959071   109.94284592   183.43940786
 H      6   4   3     1.095193335523   110.08555074   187.20783238
 H      6   4   3     1.097290564233   109.68206750    69.72768930
 H      8   2   1     1.090283177381   110.37087731   261.36918357
 H      8   2   1     1.089566362528   111.52528588    22.44912986
 H      8   2   1     1.090861672799   109.55433487   141.87218091
 H      9   2   1     1.090696879640   110.41215969   222.20966287
 H      9   2   1     1.090444073738   110.16882791   342.27309201
 H      9   2   1     1.090202239706   110.49815827   101.88446475
 H     10   5   2     1.085294602233   116.34082159    45.20164323
 H     11   7   5     1.092108941449   109.65975067   138.08440590
 H     11   7   5     1.089873122656   111.67665661    17.60545793
 H     11   7   5     1.092060264848   110.61142965   256.66888776
 H     12  10   5     1.087229757098   118.94183519     0.63164670
 H     14  13  12     1.088215321532   112.08161237   177.64431810
 H     14  13  12     1.092123267721   110.17331222   298.13742779
 H     14  13  12     1.091766678270   110.18094042    57.14309916
 H     15  13  12     1.088693706687   117.39541068   359.78935359
 H     16  15  13     1.085333509587   118.02103516   359.74705711
 H     17  16  15     1.088029589865   118.21456156   359.64066411
 H     19  18  17     1.091812633931   109.81753852   297.81849983
 H     19  18  17     1.088888464518   112.27716379   177.26311736
 H     19  18  17     1.091697270109   110.03676542    56.32640152
 H     20  18  17     1.085446944955   120.30819879     0.30775187
 H     21   1   2     1.104864903112   110.34164775   119.69404267
 H     21   1   2     1.098723265635   106.22524463   235.94855291
 H      1   2   3     0.965235366083    64.34497629   142.34334985

---------------------------
INTERNAL COORDINATES (A.U.)
---------------------------
 O      0   0   0     0.000000000000     0.00000000     0.00000000
 C      1   0   0    22.700490034410     0.00000000     0.00000000
 C      2   1   0     2.909968311604   163.15328671     0.00000000
 C      3   2   1     2.882888211378   112.00857937   342.53834823
 C      2   1   3     2.889302285799    52.84994278    26.52432856
 C      4   3   2     2.882442935351   108.75131636    62.98849283
 C      5   2   1     2.536111809422   122.98816513   195.40989249
 C      2   1   5     2.911492182727    86.48126458   119.45178876
 C      2   1   5     2.909952652158    73.09752960   230.39734618
 C      5   2   1     2.772940247692   114.64932790    13.48423096
 C      7   5   2     2.848959190237   123.68667215   185.15346045
 C     10   5   2     2.547154680082   123.97375423   228.75114215
 C     12  10   5     2.733998711694   125.70388481   178.71182124
 C     13  12  10     2.844394405515   117.76552686     2.25552823
 C     13  12  10     2.569549237398   118.63803828   182.31586697
 C     15  13  12     2.706992906681   127.37151024   179.74906635
 C     16  15  13     2.556851889281   122.10849609   179.66856067
 C     17  16  15     2.745829126097   126.69211567   179.92455450
 C     18  17  16     2.853844405586   114.24165879   177.22709760
 C     18  17  16     2.538729133812   123.43629126   357.44228619
 C      1   2   3     2.665472900092    73.21190517    19.55751400
 H      3   2   1     2.067965915634   109.14621141   220.30221770
 H      3   2   1     2.070249607268   109.23837708   102.98254181
 H      4   3   2     2.068285927586   110.37056468   302.39206209
 H      4   3   2     2.066912448072   109.94284592   183.43940786
 H      6   4   3     2.069615467834   110.08555074   187.20783238
 H      6   4   3     2.073578655736   109.68206750    69.72768930
 H      8   2   1     2.060336613672   110.37087731   261.36918357
 H      8   2   1     2.058982029910   111.52528588    22.44912986
 H      8   2   1     2.061429811582   109.55433487   141.87218091
 H      9   2   1     2.061118397643   110.41215969   222.20966287
 H      9   2   1     2.060640663722   110.16882791   342.27309201
 H      9   2   1     2.060183663632   110.49815827   101.88446475
 H     10   5   2     2.050909572843   116.34082159    45.20164323
 H     11   7   5     2.063786807746   109.65975067   138.08440590
 H     11   7   5     2.059561722542   111.67665661    17.60545793
 H     11   7   5     2.063694822300   110.61142965   256.66888776
 H     12  10   5     2.054566485565   118.94183519     0.63164670
 H     14  13  12     2.056428932433   112.08161237   177.64431810
 H     14  13  12     2.063813880475   110.17331222   298.13742779
 H     14  13  12     2.063140024071   110.18094042    57.14309916
 H     15  13  12     2.057332949362   117.39541068   359.78935359
 H     16  15  13     2.050983097087   118.02103516   359.74705711
 H     17  16  15     2.056077950447   118.21456156   359.64066411
 H     19  18  17     2.063226867684   109.81753852   297.81849983
 H     19  18  17     2.057700988326   112.27716379   177.26311736
 H     19  18  17     2.063008861655   110.03676542    56.32640152
 H     20  18  17     2.051197458866   120.30819879     0.30775187
 H     21   1   2     2.087892081863   110.34164775   119.69404267
 H     21   1   2     2.076286069017   106.22524463   235.94855291
 H      1   2   3     1.824030496672    64.34497629   142.34334985

---------------------
BASIS SET INFORMATION
---------------------
There are 3 groups of distinct atoms

 Group   1 Type O   : 11s6p2d contracted to 5s3p2d pattern {62111/411/11}
 Group   2 Type C   : 11s6p1d contracted to 5s3p1d pattern {62111/411/1}
 Group   3 Type H   : 5s contracted to 3s pattern {311}

Atom   0O    basis set group =>   1
Atom   1C    basis set group =>   2
Atom   2C    basis set group =>   2
Atom   3C    basis set group =>   2
Atom   4C    basis set group =>   2
Atom   5C    basis set group =>   2
Atom   6C    basis set group =>   2
Atom   7C    basis set group =>   2
Atom   8C    basis set group =>   2
Atom   9C    basis set group =>   2
Atom  10C    basis set group =>   2
Atom  11C    basis set group =>   2
Atom  12C    basis set group =>   2
Atom  13C    basis set group =>   2
Atom  14C    basis set group =>   2
Atom  15C    basis set group =>   2
Atom  16C    basis set group =>   2
Atom  17C    basis set group =>   2
Atom  18C    basis set group =>   2
Atom  19C    basis set group =>   2
Atom  20C    basis set group =>   2
Atom  21H    basis set group =>   3
Atom  22H    basis set group =>   3
Atom  23H    basis set group =>   3
Atom  24H    basis set group =>   3
Atom  25H    basis set group =>   3
Atom  26H    basis set group =>   3
Atom  27H    basis set group =>   3
Atom  28H    basis set group =>   3
Atom  29H    basis set group =>   3
Atom  30H    basis set group =>   3
Atom  31H    basis set group =>   3
Atom  32H    basis set group =>   3
Atom  33H    basis set group =>   3
Atom  34H    basis set group =>   3
Atom  35H    basis set group =>   3
Atom  36H    basis set group =>   3
Atom  37H    basis set group =>   3
Atom  38H    basis set group =>   3
Atom  39H    basis set group =>   3
Atom  40H    basis set group =>   3
Atom  41H    basis set group =>   3
Atom  42H    basis set group =>   3
Atom  43H    basis set group =>   3
Atom  44H    basis set group =>   3
Atom  45H    basis set group =>   3
Atom  46H    basis set group =>   3
Atom  47H    basis set group =>   3
Atom  48H    basis set group =>   3
Atom  49H    basis set group =>   3
Atom  50H    basis set group =>   3
---------------------------------
AUXILIARY/J BASIS SET INFORMATION
---------------------------------
There are 3 groups of distinct atoms

 Group   1 Type O   : 8s3p3d contracted to 6s3p3d pattern {311111/111/111}
 Group   2 Type C   : 8s3p3d contracted to 6s3p3d pattern {311111/111/111}
 Group   3 Type H   : 5s2p contracted to 3s1p pattern {311/2}

Atom   0O    basis set group =>   1
Atom   1C    basis set group =>   2
Atom   2C    basis set group =>   2
Atom   3C    basis set group =>   2
Atom   4C    basis set group =>   2
Atom   5C    basis set group =>   2
Atom   6C    basis set group =>   2
Atom   7C    basis set group =>   2
Atom   8C    basis set group =>   2
Atom   9C    basis set group =>   2
Atom  10C    basis set group =>   2
Atom  11C    basis set group =>   2
Atom  12C    basis set group =>   2
Atom  13C    basis set group =>   2
Atom  14C    basis set group =>   2
Atom  15C    basis set group =>   2
Atom  16C    basis set group =>   2
Atom  17C    basis set group =>   2
Atom  18C    basis set group =>   2
Atom  19C    basis set group =>   2
Atom  20C    basis set group =>   2
Atom  21H    basis set group =>   3
Atom  22H    basis set group =>   3
Atom  23H    basis set group =>   3
Atom  24H    basis set group =>   3
Atom  25H    basis set group =>   3
Atom  26H    basis set group =>   3
Atom  27H    basis set group =>   3
Atom  28H    basis set group =>   3
Atom  29H    basis set group =>   3
Atom  30H    basis set group =>   3
Atom  31H    basis set group =>   3
Atom  32H    basis set group =>   3
Atom  33H    basis set group =>   3
Atom  34H    basis set group =>   3
Atom  35H    basis set group =>   3
Atom  36H    basis set group =>   3
Atom  37H    basis set group =>   3
Atom  38H    basis set group =>   3
Atom  39H    basis set group =>   3
Atom  40H    basis set group =>   3
Atom  41H    basis set group =>   3
Atom  42H    basis set group =>   3
Atom  43H    basis set group =>   3
Atom  44H    basis set group =>   3
Atom  45H    basis set group =>   3
Atom  46H    basis set group =>   3
Atom  47H    basis set group =>   3
Atom  48H    basis set group =>   3
Atom  49H    basis set group =>   3
Atom  50H    basis set group =>   3


           ************************************************************
           *        Program running with 16 parallel MPI-processes    *
           *              working on a common directory               *
           ************************************************************
------------------------------------------------------------------------------
                             ORCA STARTUP CALCULATIONS
                           -- RI-GTO INTEGRALS CHOSEN --
------------------------------------------------------------------------------
------------------------------------------------------------------------------
                   ___                                                        
                  /   \      - P O W E R E D   B Y -                         
                 /     \                                                     
                 |  |  |   _    _      __       _____    __    __             
                 |  |  |  | |  | |    /  \     |  _  \  |  |  /  |          
                  \  \/   | |  | |   /    \    | | | |  |  | /  /          
                 / \  \   | |__| |  /  /\  \   | |_| |  |  |/  /          
                |  |  |   |  __  | /  /__\  \  |    /   |      \           
                |  |  |   | |  | | |   __   |  |    \   |  |\   \          
                \     /   | |  | | |  |  |  |  | |\  \  |  | \   \       
                 \___/    |_|  |_| |__|  |__|  |_| \__\ |__|  \__/        
                                                                              
                      - O R C A' S   B I G   F R I E N D -                    
                                      &                                       
                       - I N T E G R A L  F E E D E R -                       
                                                                              
 v1 FN, 2020, v2 2021, v3 2022-2024                                           
------------------------------------------------------------------------------


----------------------
SHARK INTEGRAL PACKAGE
----------------------

Number of atoms                             ...     51
Number of basis functions                   ...    494
Number of shells                            ...    280
Maximum angular momentum                    ...      2
Integral batch strategy                     ... SHARK/LIBINT Hybrid
RI-J (if used) integral strategy            ... SPLIT-RIJ (Revised 2003 algorithm where possible)
Printlevel                                  ...      1
Contraction scheme used                     ... SEGMENTED contraction
Prescreening option                         ... SCHWARTZ
   Thresh                                   ... 2.500e-11
   Tcut                                     ... 2.500e-12
   Tpresel                                  ... 2.500e-12 
Coulomb Range Separation                    ... NOT USED
Exchange Range Separation                   ... NOT USED
Multipole approximations                    ... NOT USED
Finite Nucleus Model                        ... NOT USED
CABS basis                                  ... NOT available
Auxiliary Coulomb fitting basis             ... AVAILABLE
   # of basis functions in Aux-J            ...    810
   # of shells in Aux-J                     ...    372
   Maximum angular momentum in Aux-J        ...      2
Auxiliary J/K fitting basis                 ... NOT available
Auxiliary Correlation fitting basis         ... NOT available
Auxiliary 'external' fitting basis          ... NOT available

Checking pre-screening integrals            ... done (  0.0 sec) Dimension = 280
Check shell pair data                       ... done (  0.0 sec)
Shell pair information
Shell pair cut-off parameter TPreSel        ...   2.5e-12
Total number of shell pairs                 ...     39340
Shell pairs after pre-screening             ...     24434
Total number of primitive shell pairs       ...    140737
Primitive shell pairs kept                  ...     55996
          la=0 lb=0:  11318 shell pairs
          la=1 lb=0:   8284 shell pairs
          la=1 lb=1:   1514 shell pairs
          la=2 lb=0:   2317 shell pairs
          la=2 lb=1:    876 shell pairs
          la=2 lb=2:    125 shell pairs

Calculating one electron integrals          ... done (  0.0 sec)
Calculating RI/J V-Matrix + Cholesky decomp.... done (  0.0 sec)
Calculating Nuclear repulsion               ... done (  0.0 sec) ENN=   1567.345448432877 Eh

Diagonalization of the overlap matrix:
Smallest eigenvalue                        ... 2.020e-05
Time for diagonalization                   ...    0.023 sec
Threshold for overlap eigenvalues          ... 1.000e-07
Number of eigenvalues below threshold      ... 0
Time for construction of square roots      ...    0.013 sec
Total time needed                          ...    0.038 sec

-------------------
DFT GRID GENERATION
-------------------

General Integration Accuracy     IntAcc      ... 4.959
Radial Grid Type                 RadialGrid  ... OptM3 with GC (2021)
Angular Grid (max. ang.)         AngularGrid ... 6 (Lebedev-590)
Angular grid pruning method      GridPruning ... 4 (adaptive)
Weight generation scheme         WeightScheme... mBecke (2022)
Basis function cutoff            BFCut       ... 1.0000e-11
Integration weight cutoff        WCut        ... 1.0000e-14
Partially contracted basis set               ... off
Rotationally invariant grid construction     ... off
Angular grids for H and He will be reduced by one unit
Diffuse basis detected: some atoms will have their outermost
                        angular grid increased by 1.

Total number of grid points                  ...   552303
Total number of batches                      ...     8657
Average number of points per batch           ...       63
Average number of grid points per atom       ...    10829
Initializing property integral containers    ... done (  0.0 sec)

SHARK setup successfully completed in   4.2 seconds

Maximum memory used throughout the entire STARTUP-calculation: 124.1 MB


           ************************************************************
           *        Program running with 16 parallel MPI-processes    *
           *              working on a common directory               *
           ************************************************************
-------------------------------------------------------------------------------
                                 ORCA GUESS
                   Start orbitals & Density for SCF / CASSCF
-------------------------------------------------------------------------------

------------
SCF SETTINGS
------------
Hamiltonian:
 Density Functional     Method          .... DFT(GTOs)
 Exchange Functional    Exchange        .... B973C
 Correlation Functional Correlation     .... B973C
 Gradients option       PostSCFGGA      .... off
 RI-approximation to the Coulomb term is turned on
   Number of AuxJ basis functions       .... 810


General Settings:
 Integral files         IntName         .... m1_00_Vitamin_A-GFN1_053-B97-3C-TZ
 Hartree-Fock type      HFTyp           .... RHF
 Total Charge           Charge          ....    0
 Multiplicity           Mult            ....    1
 Number of Electrons    NEL             ....  158
 Basis Dimension        Dim             ....  494
 Nuclear Repulsion      ENuc            ....   1567.3454484329 Eh

Convergence Acceleration:
 AO-DIIS                CNVDIIS         .... on
   Start iteration      DIISMaxIt       ....    12
   Startup error        DIISStart       ....  0.200000
   # of expansion vecs  DIISMaxEq       ....     5
   Bias factor          DIISBfac        ....   1.050
   Max. coefficient     DIISMaxC        ....  10.000
 MO-DIIS                CNVKDIIS        .... off
 Trust-Rad. Augm. Hess. CNVTRAH         .... off
 SOSCF                  CNVSOSCF        .... on
   Start iteration      SOSCFMaxIt      ....   150
   Startup grad/error   SOSCFStart      ....  0.003300
   Hessian update       SOSCFHessUp     .... L-BFGS
 Level Shifting         CNVShift        .... on
   Level shift para.    LevelShift      ....    0.2500
   Turn off err/grad.   ShiftErr        ....    0.0010
 Zerner damping         CNVZerner       .... off
 Static damping         CNVDamp         .... on
   Fraction old density DampFac         ....    0.7000
   Max. Damping (<1)    DampMax         ....    0.9800
   Min. Damping (>=0)   DampMin         ....    0.0000
   Turn off err/grad.   DampErr         ....    0.1000

SCF Procedure:
 Maximum # iterations   MaxIter         ....   800
 SCF integral mode      SCFMode         .... Direct
   Integral package                     .... SHARK and LIBINT hybrid scheme
 Reset frequency        DirectResetFreq ....    20
 Integral Threshold     Thresh          ....  2.500e-11 Eh
 Primitive CutOff       TCut            ....  2.500e-12 Eh

Convergence Tolerance:
 Convergence Check Mode ConvCheckMode   .... Total+1el-Energy
 Convergence forced     ConvForced      .... 0
 Energy Change          TolE            ....  1.000e-08 Eh
 1-El. energy change                    ....  1.000e-05 Eh
 Orbital Gradient       TolG            ....  1.000e-05
 Orbital Rotation angle TolX            ....  1.000e-05
 DIIS Error             TolErr          ....  5.000e-07

--------------------------------
INITIAL GUESS: MINIMAL BASIS EHT
--------------------------------
The minimal basis has 135 functions
EHT matrix was diagonalized
Basis set overlap was calculated now projecting the orbitals
Using GuessMode=FMatrix for the initial guess
C*T matrix was formed
Effective Fockian was calculated
Effective Fockian was diagonalized
Initial density was built
                      ------------------
                      INITIAL GUESS DONE
                      ------------------
             **** ENERGY FILE WAS UPDATED (m1_00_Vitamin_A-GFN1_053-B97-3C-TZ.en.tmp) ****
Finished Guess after   0.3 sec
Maximum memory used throughout the entire GUESS-calculation: 41.7 MB


           ************************************************************
           *        Program running with 16 parallel MPI-processes    *
           *              working on a common directory               *
           ************************************************************

-------------------------------------------------------------------------------------------
                                      ORCA LEAN-SCF
                              memory conserving SCF solver
-------------------------------------------------------------------------------------------

----------------------------------------D-I-I-S--------------------------------------------
Iteration    Energy (Eh)           Delta-E    RMSDP     MaxDP     DIISErr   Damp  Time(sec)
-------------------------------------------------------------------------------------------
               ***  Starting incremental Fock matrix formation  ***
    1    -852.7010620676483086     0.00e+00  3.96e-03  1.29e-01  4.64e-01  0.700   0.9
Warning: op=0 Small HOMO/LUMO gap (   0.075) - skipping pre-diagonalization
         Will do a full diagonalization
    2    -853.3119694263232304    -6.11e-01  4.28e-03  4.97e-01  3.27e-01  0.700   0.9
    3    -853.7236185603046579    -4.12e-01  2.43e-03  1.75e-01  2.28e-01  0.700   0.9
                               ***Turning on AO-DIIS***
    4    -854.0097098613368871    -2.86e-01  1.78e-03  1.09e-01  1.59e-01  0.700   0.9
    5    -854.2064845672966840    -1.97e-01  1.22e-03  5.50e-02  1.11e-01  0.700   0.9
    6    -854.3480328333057514    -1.42e-01  8.45e-04  2.82e-02  7.79e-02  0.700   0.9
    7    -854.4480484714040358    -1.00e-01  2.01e-03  8.16e-02  5.45e-02  0.000   0.9
    8    -854.6796713422168068    -2.32e-01  5.19e-04  7.60e-02  2.12e-02  0.000   0.9
    9    -854.6800842315929003    -4.13e-04  5.62e-05  3.65e-03  1.42e-02  0.000   0.9
                              *** Initializing SOSCF ***
---------------------------------------S-O-S-C-F--------------------------------------
Iteration    Energy (Eh)           Delta-E    RMSDP     MaxDP     MaxGrad    Time(sec)
--------------------------------------------------------------------------------------
   10    -854.6803140079268815    -2.30e-04  4.39e-05  5.19e-03  2.27e-03     0.9
               *** Restarting incremental Fock matrix formation ***
   11    -854.6803274100029739    -1.34e-05  7.76e-05  1.27e-02  1.24e-04     0.9
   12    -854.6803249445051733     2.47e-06  3.80e-05  6.15e-03  2.74e-04     0.8
   13    -854.6803284196971617    -3.48e-06  7.35e-06  6.59e-04  3.34e-05     0.8
   14    -854.6803283221820493     9.75e-08  4.36e-06  5.23e-04  7.84e-05     0.8
   15    -854.6803284404313672    -1.18e-07  4.04e-06  2.70e-04  4.05e-06     0.8
   16    -854.6803284265874936     1.38e-08  1.83e-06  1.62e-04  1.13e-05     0.8
   17    -854.6803284434568013    -1.69e-08  3.53e-06  2.34e-04  1.26e-06     0.8
                  *** Gradient check signals convergence ***

               *****************************************************
               *                     SUCCESS                       *
               *           SCF CONVERGED AFTER  17 CYCLES          *
               *****************************************************

             **** ENERGY FILE WAS UPDATED (m1_00_Vitamin_A-GFN1_053-B97-3C-TZ.en.tmp) ****

----------------
TOTAL SCF ENERGY
----------------

Total Energy       :       -854.68032844345680 Eh          -23257.03410 eV

Components:
Nuclear Repulsion  :       1567.34544843287722 Eh           42649.63792 eV
Electronic Energy  :      -2422.02577687633402 Eh          -65906.67202 eV
One Electron Energy:      -4269.01495379961943 Eh         -116165.80265 eV
Two Electron Energy:       1846.98917692328541 Eh           50259.13063 eV

Virial components:
Potential Energy   :      -1705.99881964881683 Eh          -46422.58796 eV
Kinetic Energy     :        851.31849120536003 Eh           23165.55386 eV
Virial Ratio       :          2.00394897711353

DFT components:
N(Alpha)           :       79.000012485387 electrons
N(Beta)            :       79.000012485387 electrons
N(Total)           :      158.000024970774 electrons
E(XC)              :     -127.682591958496 Eh       

---------------
SCF CONVERGENCE
---------------

  Last Energy change         ...    1.6869e-08  Tolerance :   1.0000e-08
  Last MAX-Density change    ...    2.3374e-04  Tolerance :   1.0000e-07
  Last RMS-Density change    ...    3.5348e-06  Tolerance :   5.0000e-09
  Last DIIS Error            ...    2.2670e-03  Tolerance :   5.0000e-07
  Last Orbital Gradient      ...    1.2623e-06  Tolerance :   1.0000e-05
  Last Orbital Rotation      ...    1.0018e-05  Tolerance :   1.0000e-05


----------------
ORBITAL ENERGIES
----------------

  NO   OCC          E(Eh)            E(eV) 
   0   2.0000     -18.742915      -510.0206 
   1   2.0000      -9.941504      -270.5221 
   2   2.0000      -9.901051      -269.4213 
   3   2.0000      -9.901049      -269.4212 
   4   2.0000      -9.900620      -269.4096 
   5   2.0000      -9.893614      -269.2189 
   6   2.0000      -9.892715      -269.1945 
   7   2.0000      -9.890859      -269.1440 
   8   2.0000      -9.889880      -269.1173 
   9   2.0000      -9.889147      -269.0974 
  10   2.0000      -9.887531      -269.0534 
  11   2.0000      -9.886930      -269.0370 
  12   2.0000      -9.886694      -269.0306 
  13   2.0000      -9.886084      -269.0140 
  14   2.0000      -9.886019      -269.0122 
  15   2.0000      -9.884420      -268.9687 
  16   2.0000      -9.881768      -268.8966 
  17   2.0000      -9.880445      -268.8606 
  18   2.0000      -9.876493      -268.7530 
  19   2.0000      -9.876455      -268.7520 
  20   2.0000      -9.872219      -268.6367 
  21   2.0000      -0.943303       -25.6686 
  22   2.0000      -0.781561       -21.2674 
  23   2.0000      -0.764490       -20.8028 
  24   2.0000      -0.749658       -20.3992 
  25   2.0000      -0.718341       -19.5471 
  26   2.0000      -0.713030       -19.4025 
  27   2.0000      -0.691966       -18.8294 
  28   2.0000      -0.660874       -17.9833 
  29   2.0000      -0.653459       -17.7815 
  30   2.0000      -0.629758       -17.1366 
  31   2.0000      -0.619863       -16.8673 
  32   2.0000      -0.617373       -16.7996 
  33   2.0000      -0.609440       -16.5837 
  34   2.0000      -0.592582       -16.1250 
  35   2.0000      -0.562794       -15.3144 
  36   2.0000      -0.537050       -14.6139 
  37   2.0000      -0.515182       -14.0188 
  38   2.0000      -0.500733       -13.6256 
  39   2.0000      -0.482898       -13.1403 
  40   2.0000      -0.470323       -12.7982 
  41   2.0000      -0.461057       -12.5460 
  42   2.0000      -0.448827       -12.2132 
  43   2.0000      -0.437266       -11.8986 
  44   2.0000      -0.422495       -11.4967 
  45   2.0000      -0.414488       -11.2788 
  46   2.0000      -0.402602       -10.9554 
  47   2.0000      -0.400388       -10.8951 
  48   2.0000      -0.394233       -10.7276 
  49   2.0000      -0.388011       -10.5583 
  50   2.0000      -0.380320       -10.3490 
  51   2.0000      -0.377509       -10.2725 
  52   2.0000      -0.376756       -10.2521 
  53   2.0000      -0.376055       -10.2330 
  54   2.0000      -0.374028       -10.1778 
  55   2.0000      -0.357428        -9.7261 
  56   2.0000      -0.354450        -9.6451 
  57   2.0000      -0.350714        -9.5434 
  58   2.0000      -0.348130        -9.4731 
  59   2.0000      -0.343163        -9.3379 
  60   2.0000      -0.339423        -9.2362 
  61   2.0000      -0.330197        -8.9851 
  62   2.0000      -0.326581        -8.8867 
  63   2.0000      -0.320359        -8.7174 
  64   2.0000      -0.310120        -8.4388 
  65   2.0000      -0.308321        -8.3898 
  66   2.0000      -0.306700        -8.3457 
  67   2.0000      -0.299935        -8.1616 
  68   2.0000      -0.299116        -8.1393 
  69   2.0000      -0.296167        -8.0591 
  70   2.0000      -0.289407        -7.8752 
  71   2.0000      -0.280222        -7.6252 
  72   2.0000      -0.271058        -7.3759 
  73   2.0000      -0.261251        -7.1090 
  74   2.0000      -0.253806        -6.9064 
  75   2.0000      -0.234203        -6.3730 
  76   2.0000      -0.225081        -6.1248 
  77   2.0000      -0.198904        -5.4125 
  78   2.0000      -0.164093        -4.4652 
  79   0.0000      -0.084864        -2.3093 
  80   0.0000      -0.028648        -0.7795 
  81   0.0000       0.007507         0.2043 
  82   0.0000       0.019934         0.5424 
  83   0.0000       0.022201         0.6041 
  84   0.0000       0.028887         0.7860 
  85   0.0000       0.034490         0.9385 
  86   0.0000       0.036928         1.0049 
  87   0.0000       0.043353         1.1797 
  88   0.0000       0.045094         1.2271 
  89   0.0000       0.048868         1.3298 
*Only the first 10 virtual orbitals were printed.

                    ********************************
                    * MULLIKEN POPULATION ANALYSIS *
                    ********************************

-----------------------
MULLIKEN ATOMIC CHARGES
-----------------------
   0 O :   -0.559220
   1 C :    0.056449
   2 C :   -0.323241
   3 C :   -0.339540
   4 C :    0.261259
   5 C :   -0.318038
   6 C :    0.015323
   7 C :   -0.530699
   8 C :   -0.545730
   9 C :   -0.407866
  10 C :   -0.606855
  11 C :   -0.304386
  12 C :    0.278030
  13 C :   -0.576412
  14 C :   -0.226330
  15 C :   -0.043063
  16 C :   -0.285072
  17 C :    0.160063
  18 C :   -0.610709
  19 C :   -0.159022
  20 C :   -0.284595
  21 H :    0.174915
  22 H :    0.170090
  23 H :    0.160344
  24 H :    0.170883
  25 H :    0.175300
  26 H :    0.166853
  27 H :    0.177728
  28 H :    0.164594
  29 H :    0.176140
  30 H :    0.168011
  31 H :    0.182463
  32 H :    0.166070
  33 H :    0.190437
  34 H :    0.166208
  35 H :    0.212859
  36 H :    0.173064
  37 H :    0.157876
  38 H :    0.175970
  39 H :    0.179205
  40 H :    0.182368
  41 H :    0.132424
  42 H :    0.106574
  43 H :    0.143970
  44 H :    0.181907
  45 H :    0.185135
  46 H :    0.175857
  47 H :    0.155465
  48 H :    0.173854
  49 H :    0.185448
  50 H :    0.417640
Sum of atomic charges:   -0.0000000

--------------------------------
MULLIKEN REDUCED ORBITAL CHARGES
--------------------------------
  0 O s       :     3.808721  s :     3.808721
      pz      :     1.370878  p :     4.719998
      px      :     1.761721
      py      :     1.587399
      dz2     :     0.003491  d :     0.030500
      dxz     :     0.008319
      dyz     :     0.002176
      dx2y2   :     0.009803
      dxy     :     0.006711

  1 C s       :     2.923252  s :     2.923252
      pz      :     0.953948  p :     2.964181
      px      :     1.030152
      py      :     0.980080
      dz2     :     0.013063  d :     0.056118
      dxz     :     0.008905
      dyz     :     0.011166
      dx2y2   :     0.013346
      dxy     :     0.009638

  2 C s       :     3.172780  s :     3.172780
      pz      :     0.996878  p :     3.105733
      px      :     0.960271
      py      :     1.148585
      dz2     :     0.008498  d :     0.044727
      dxz     :     0.008326
      dyz     :     0.010668
      dx2y2   :     0.009647
      dxy     :     0.007589

  3 C s       :     3.206534  s :     3.206534
      pz      :     0.963704  p :     3.088562
      px      :     1.141228
      py      :     0.983631
      dz2     :     0.010050  d :     0.044444
      dxz     :     0.005237
      dyz     :     0.011726
      dx2y2   :     0.012301
      dxy     :     0.005130

  4 C s       :     3.120706  s :     3.120706
      pz      :     0.894037  p :     2.569623
      px      :     0.770385
      py      :     0.905201
      dz2     :     0.009713  d :     0.048412
      dxz     :     0.009713
      dyz     :     0.006660
      dx2y2   :     0.011872
      dxy     :     0.010454

  5 C s       :     3.137290  s :     3.137290
      pz      :     1.129512  p :     3.135003
      px      :     0.963765
      py      :     1.041726
      dz2     :     0.011701  d :     0.045745
      dxz     :     0.006029
      dyz     :     0.007041
      dx2y2   :     0.010759
      dxy     :     0.010214

  6 C s       :     3.179136  s :     3.179136
      pz      :     0.926263  p :     2.758378
      px      :     0.971870
      py      :     0.860245
      dz2     :     0.009183  d :     0.047162
      dxz     :     0.009557
      dyz     :     0.006769
      dx2y2   :     0.011307
      dxy     :     0.010347

  7 C s       :     3.263998  s :     3.263998
      pz      :     0.985790  p :     3.228957
      px      :     1.115821
      py      :     1.127346
      dz2     :     0.008874  d :     0.037744
      dxz     :     0.007006
      dyz     :     0.007635
      dx2y2   :     0.010183
      dxy     :     0.004045

  8 C s       :     3.262134  s :     3.262134
      pz      :     1.119250  p :     3.245952
      px      :     1.125567
      py      :     1.001135
      dz2     :     0.009421  d :     0.037643
      dxz     :     0.003095
      dyz     :     0.008861
      dx2y2   :     0.010921
      dxy     :     0.005346

  9 C s       :     3.306121  s :     3.306121
      pz      :     0.956739  p :     3.060351
      px      :     1.057975
      py      :     1.045637
      dz2     :     0.012508  d :     0.041394
      dxz     :     0.013726
      dyz     :     0.002731
      dx2y2   :     0.006427
      dxy     :     0.006002

 10 C s       :     3.326523  s :     3.326523
      pz      :     1.081413  p :     3.242077
      px      :     1.118856
      py      :     1.041808
      dz2     :     0.010789  d :     0.038256
      dxz     :     0.004654
      dyz     :     0.006371
      dx2y2   :     0.005636
      dxy     :     0.010806

 11 C s       :     3.309179  s :     3.309179
      pz      :     0.944741  p :     2.952659
      px      :     1.019102
      py      :     0.988815
      dz2     :     0.012590  d :     0.042548
      dxz     :     0.013280
      dyz     :     0.003439
      dx2y2   :     0.006734
      dxy     :     0.006506

 12 C s       :     3.163693  s :     3.163693
      pz      :     0.675693  p :     2.509481
      px      :     0.891591
      py      :     0.942197
      dz2     :     0.013573  d :     0.048796
      dxz     :     0.014822
      dyz     :     0.007214
      dx2y2   :     0.006906
      dxy     :     0.006280

 13 C s       :     3.276536  s :     3.276536
      pz      :     0.995546  p :     3.262129
      px      :     1.150655
      py      :     1.115928
      dz2     :     0.007703  d :     0.037747
      dxz     :     0.005626
      dyz     :     0.011186
      dx2y2   :     0.009996
      dxy     :     0.003236

 14 C s       :     3.273058  s :     3.273058
      pz      :     0.896391  p :     2.911119
      px      :     0.992137
      py      :     1.022591
      dz2     :     0.010814  d :     0.042153
      dxz     :     0.015317
      dyz     :     0.003718
      dx2y2   :     0.006322
      dxy     :     0.005983

 15 C s       :     3.044136  s :     3.044136
      pz      :     1.010982  p :     2.957073
      px      :     0.976170
      py      :     0.969921
      dz2     :     0.010813  d :     0.041855
      dxz     :     0.015287
      dyz     :     0.004274
      dx2y2   :     0.005991
      dxy     :     0.005489

 16 C s       :     3.220030  s :     3.220030
      pz      :     1.000648  p :     3.023898
      px      :     1.004061
      py      :     1.019189
      dz2     :     0.010225  d :     0.041143
      dxz     :     0.016150
      dyz     :     0.003439
      dx2y2   :     0.005986
      dxy     :     0.005342

 17 C s       :     3.149969  s :     3.149969
      pz      :     0.741948  p :     2.641113
      px      :     0.929269
      py      :     0.969896
      dz2     :     0.013667  d :     0.048855
      dxz     :     0.014317
      dyz     :     0.006470
      dx2y2   :     0.007386
      dxy     :     0.007015

 18 C s       :     3.323765  s :     3.323765
      pz      :     0.985767  p :     3.249233
      px      :     1.145934
      py      :     1.117532
      dz2     :     0.009057  d :     0.037711
      dxz     :     0.005547
      dyz     :     0.009801
      dx2y2   :     0.008844
      dxy     :     0.004462

 19 C s       :     3.146984  s :     3.146984
      pz      :     0.985668  p :     2.973965
      px      :     0.969467
      py      :     1.018830
[...]
114:   1504.64   0.001876    9.48  0.000389  (-0.015374  0.010543 -0.006440)
115:   1513.72   0.001269    6.41  0.000262  ( 0.014212  0.007624  0.001246)
116:   1513.84   0.000193    0.97  0.000040  (-0.001452  0.005469  0.002768)
117:   1520.92   0.001310    6.62  0.000269  (-0.008279  0.004216  0.013508)
118:   1598.63   0.007564   38.23  0.001477  ( 0.037172  0.003110 -0.009232)
119:   1608.42   0.003065   15.49  0.000595  (-0.022178 -0.005054  0.008789)
120:   1637.25   0.000200    1.01  0.000038  ( 0.004153  0.000225  0.004553)
121:   1657.93   0.004050   20.47  0.000762  (-0.027536 -0.000396  0.001986)
122:   1671.05   0.002398   12.12  0.000448  (-0.010462  0.009270  0.015886)
123:   2941.30   0.011257   56.89  0.001194  (-0.026347 -0.021473 -0.006250)
124:   2973.85   0.008032   40.59  0.000843  ( 0.018140  0.017304  0.014640)
125:   2975.14   0.008105   40.96  0.000850  ( 0.017729  0.006696 -0.022159)
126:   2979.29   0.007619   38.50  0.000798  ( 0.010036  0.011604  0.023721)
127:   2980.88   0.013814   69.81  0.001446  (-0.025858  0.025086  0.012175)
128:   2991.62   0.004582   23.16  0.000478  ( 0.003318  0.021404 -0.002975)
129:   2995.87   0.010183   51.46  0.001061  ( 0.010685 -0.013260 -0.027762)
130:   2997.20   0.014241   71.97  0.001483  (-0.009089  0.001060 -0.037403)
131:   2998.03   0.005210   26.33  0.000542  (-0.010437 -0.003013  0.020598)
132:   2998.91   0.008427   42.59  0.000877  (-0.024464  0.014860 -0.007591)
133:   3014.00   0.006112   30.89  0.000633  ( 0.006489 -0.003643  0.024030)
134:   3014.75   0.007784   39.34  0.000806  ( 0.017832  0.020458 -0.008318)
135:   3021.10   0.016322   82.49  0.001686  (-0.030595  0.025737  0.009356)
136:   3035.39   0.013070   66.05  0.001344  (-0.026997 -0.023982  0.006302)
137:   3042.43   0.003608   18.23  0.000370  (-0.002717  0.017291 -0.007980)
138:   3043.77   0.003618   18.28  0.000371  (-0.002183 -0.019064 -0.001663)
139:   3060.28   0.002596   13.12  0.000265  ( 0.005920 -0.015154  0.000247)
140:   3065.30   0.018772   94.87  0.001911  ( 0.028258 -0.017544 -0.028369)
141:   3071.44   0.002023   10.22  0.000206  (-0.007426  0.000613 -0.012247)
142:   3074.02   0.004689   23.70  0.000476  ( 0.008545  0.016549 -0.011363)
143:   3077.15   0.009863   49.84  0.001000  (-0.030353 -0.002487 -0.008530)
144:   3077.72   0.005440   27.49  0.000552  (-0.014654  0.003177 -0.018077)
145:   3097.22   0.002190   11.07  0.000221  (-0.004180  0.007004  0.012417)
146:   3100.38   0.005123   25.89  0.000516  ( 0.019424 -0.007579  0.008999)
147:   3102.20   0.008273   41.81  0.000832  (-0.027673 -0.000677  0.008121)
148:   3105.38   0.000355    1.79  0.000036  (-0.004841  0.003431  0.000644)
149:   3109.24   0.001308    6.61  0.000131  (-0.010508  0.000609  0.004522)
150:   3121.70   0.007881   39.83  0.000788  ( 0.020995 -0.001421  0.018575)
151:   3123.89   0.007078   35.77  0.000707  ( 0.024260 -0.004136  0.010072)
152:   3730.43   0.001827    9.23  0.000153  ( 0.001167 -0.011728  0.003728)

* The epsilon (eps) is given for a Dirac delta lineshape.
** The dipole moment derivative (T) already includes vibrational overlap.

The first frequency considered to be a vibration is 6
The total number of vibrations considered is 147


--------------------------
THERMOCHEMISTRY AT 298.15K
--------------------------

Temperature         ...   298.15 K
Pressure            ...     1.00 atm
Total Mass          ...   286.46 AMU
Quasi RRHO          ...     True
Cut-Off Frequency   ...     1.00 cm^-1

Throughout the following assumptions are being made:
  (1) The electronic state is orbitally nondegenerate
  (2) There are no thermally accessible electronically excited states
  (3) Hindered rotations indicated by low frequency modes are not
      treated as such but are treated as vibrations and this may
      cause some error
  (4) All equations used are the standard statistical mechanics
      equations for an ideal gas
  (5) All vibrations are strictly harmonic

freq.      18.75  E(vib)   ...       0.57 
freq.      19.97  E(vib)   ...       0.56 
freq.      32.17  E(vib)   ...       0.55 
freq.      45.63  E(vib)   ...       0.53 
freq.      56.84  E(vib)   ...       0.51 
freq.      62.13  E(vib)   ...       0.51 
freq.      76.14  E(vib)   ...       0.49 
freq.      99.04  E(vib)   ...       0.46 
freq.     106.46  E(vib)   ...       0.45 
freq.     129.96  E(vib)   ...       0.43 
freq.     135.99  E(vib)   ...       0.42 
freq.     158.01  E(vib)   ...       0.40 
freq.     167.30  E(vib)   ...       0.39 
freq.     185.20  E(vib)   ...       0.37 
freq.     194.05  E(vib)   ...       0.36 
freq.     202.39  E(vib)   ...       0.35 
freq.     232.22  E(vib)   ...       0.32 
freq.     240.88  E(vib)   ...       0.31 
freq.     263.68  E(vib)   ...       0.29 
freq.     269.72  E(vib)   ...       0.29 
freq.     281.94  E(vib)   ...       0.28 
freq.     293.72  E(vib)   ...       0.27 
freq.     304.04  E(vib)   ...       0.26 
freq.     319.31  E(vib)   ...       0.25 
freq.     328.05  E(vib)   ...       0.24 
freq.     347.75  E(vib)   ...       0.23 
freq.     361.77  E(vib)   ...       0.22 
freq.     369.45  E(vib)   ...       0.21 
freq.     378.14  E(vib)   ...       0.21 
freq.     403.58  E(vib)   ...       0.19 
freq.     423.82  E(vib)   ...       0.18 
freq.     438.12  E(vib)   ...       0.17 
freq.     475.72  E(vib)   ...       0.15 
freq.     483.63  E(vib)   ...       0.15 
freq.     503.85  E(vib)   ...       0.14 
freq.     514.31  E(vib)   ...       0.13 
freq.     523.27  E(vib)   ...       0.13 
freq.     537.92  E(vib)   ...       0.12 
freq.     580.45  E(vib)   ...       0.11 
freq.     600.50  E(vib)   ...       0.10 
freq.     617.05  E(vib)   ...       0.09 
freq.     664.65  E(vib)   ...       0.08 
freq.     732.12  E(vib)   ...       0.06 
freq.     792.38  E(vib)   ...       0.05 
freq.     800.97  E(vib)   ...       0.05 
freq.     839.89  E(vib)   ...       0.04 
freq.     846.42  E(vib)   ...       0.04 
freq.     856.35  E(vib)   ...       0.04 
freq.     865.34  E(vib)   ...       0.04 
freq.     891.00  E(vib)   ...       0.04 
freq.     899.48  E(vib)   ...       0.03 
freq.     901.31  E(vib)   ...       0.03 
freq.     913.55  E(vib)   ...       0.03 
freq.     938.54  E(vib)   ...       0.03 
freq.     951.06  E(vib)   ...       0.03 
freq.     959.26  E(vib)   ...       0.03 
freq.     967.91  E(vib)   ...       0.03 
freq.     979.62  E(vib)   ...       0.03 
freq.     991.09  E(vib)   ...       0.02 
freq.     992.29  E(vib)   ...       0.02 
freq.    1001.03  E(vib)   ...       0.02 
freq.    1007.66  E(vib)   ...       0.02 
freq.    1023.73  E(vib)   ...       0.02 
freq.    1031.64  E(vib)   ...       0.02 
freq.    1044.26  E(vib)   ...       0.02 
freq.    1049.74  E(vib)   ...       0.02 
freq.    1055.31  E(vib)   ...       0.02 
freq.    1063.44  E(vib)   ...       0.02 
freq.    1077.57  E(vib)   ...       0.02 
freq.    1123.15  E(vib)   ...       0.01 
freq.    1143.29  E(vib)   ...       0.01 
freq.    1154.13  E(vib)   ...       0.01 
freq.    1178.83  E(vib)   ...       0.01 
freq.    1191.09  E(vib)   ...       0.01 
freq.    1201.14  E(vib)   ...       0.01 
freq.    1202.41  E(vib)   ...       0.01 
freq.    1223.96  E(vib)   ...       0.01 
freq.    1231.54  E(vib)   ...       0.01 
freq.    1233.56  E(vib)   ...       0.01 
freq.    1245.10  E(vib)   ...       0.01 
freq.    1282.28  E(vib)   ...       0.01 
freq.    1298.61  E(vib)   ...       0.01 
freq.    1310.11  E(vib)   ...       0.01 
freq.    1328.63  E(vib)   ...       0.01 
freq.    1333.22  E(vib)   ...       0.01 
freq.    1343.58  E(vib)   ...       0.01 
freq.    1349.78  E(vib)   ...       0.01 
freq.    1364.55  E(vib)   ...       0.01 
freq.    1373.48  E(vib)   ...       0.01 
freq.    1377.26  E(vib)   ...       0.01 
freq.    1382.85  E(vib)   ...       0.01 
freq.    1392.35  E(vib)   ...       0.00 
freq.    1400.75  E(vib)   ...       0.00 
freq.    1408.63  E(vib)   ...       0.00 
freq.    1411.15  E(vib)   ...       0.00 
freq.    1414.57  E(vib)   ...       0.00 
freq.    1416.04  E(vib)   ...       0.00 
freq.    1425.01  E(vib)   ...       0.00 
freq.    1472.40  E(vib)   ...       0.00 
freq.    1484.49  E(vib)   ...       0.00 
freq.    1489.32  E(vib)   ...       0.00 
freq.    1491.11  E(vib)   ...       0.00 
freq.    1491.65  E(vib)   ...       0.00 
freq.    1492.57  E(vib)   ...       0.00 
freq.    1493.56  E(vib)   ...       0.00 
freq.    1496.30  E(vib)   ...       0.00 
freq.    1499.19  E(vib)   ...       0.00 
freq.    1501.62  E(vib)   ...       0.00 
freq.    1504.64  E(vib)   ...       0.00 
freq.    1513.72  E(vib)   ...       0.00 
freq.    1513.84  E(vib)   ...       0.00 
freq.    1520.92  E(vib)   ...       0.00 
freq.    1598.63  E(vib)   ...       0.00 
freq.    1608.42  E(vib)   ...       0.00 
freq.    1637.25  E(vib)   ...       0.00 
freq.    1657.93  E(vib)   ...       0.00 
freq.    1671.05  E(vib)   ...       0.00 
freq.    2941.30  E(vib)   ...       0.00 
freq.    2973.85  E(vib)   ...       0.00 
freq.    2975.14  E(vib)   ...       0.00 
freq.    2979.29  E(vib)   ...       0.00 
freq.    2980.88  E(vib)   ...       0.00 
freq.    2991.62  E(vib)   ...       0.00 
freq.    2995.87  E(vib)   ...       0.00 
freq.    2997.20  E(vib)   ...       0.00 
freq.    2998.03  E(vib)   ...       0.00 
freq.    2998.91  E(vib)   ...       0.00 
freq.    3014.00  E(vib)   ...       0.00 
freq.    3014.75  E(vib)   ...       0.00 
freq.    3021.10  E(vib)   ...       0.00 
freq.    3035.39  E(vib)   ...       0.00 
freq.    3042.43  E(vib)   ...       0.00 
freq.    3043.77  E(vib)   ...       0.00 
freq.    3060.28  E(vib)   ...       0.00 
freq.    3065.30  E(vib)   ...       0.00 
freq.    3071.44  E(vib)   ...       0.00 
freq.    3074.02  E(vib)   ...       0.00 
freq.    3077.15  E(vib)   ...       0.00 
freq.    3077.72  E(vib)   ...       0.00 
freq.    3097.22  E(vib)   ...       0.00 
freq.    3100.38  E(vib)   ...       0.00 
freq.    3102.20  E(vib)   ...       0.00 
freq.    3105.38  E(vib)   ...       0.00 
freq.    3109.24  E(vib)   ...       0.00 
freq.    3121.70  E(vib)   ...       0.00 
freq.    3123.89  E(vib)   ...       0.00 
freq.    3730.43  E(vib)   ...       0.00 

------------
INNER ENERGY
------------

The inner energy is: U= E(el) + E(ZPE) + E(vib) + E(rot) + E(trans)
    E(el)   - is the total energy from the electronic structure calculation
              = E(kin-el) + E(nuc-el) + E(el-el) + E(nuc-nuc)
    E(ZPE)  - the the zero temperature vibrational energy from the frequency calculation
    E(vib)  - the the finite temperature correction to E(ZPE) due to population
              of excited vibrational states
    E(rot)  - is the rotational thermal energy
    E(trans)- is the translational thermal energy

Summary of contributions to the inner energy U:
Electronic energy                ...   -854.95381176 Eh
Zero point energy                ...      0.44816132 Eh     281.22 kcal/mol
Thermal vibrational correction   ...      0.02161909 Eh      13.57 kcal/mol
Thermal rotational correction    ...      0.00141627 Eh       0.89 kcal/mol
Thermal translational correction ...      0.00141627 Eh       0.89 kcal/mol
-----------------------------------------------------------------------
Total thermal energy                   -854.48119880 Eh


Summary of corrections to the electronic energy:
(perhaps to be used in another calculation)
Total thermal correction                  0.02445163 Eh      15.34 kcal/mol
Non-thermal (ZPE) correction              0.44816132 Eh     281.22 kcal/mol
-----------------------------------------------------------------------
Total correction                          0.47261296 Eh     296.57 kcal/mol


--------
ENTHALPY
--------

The enthalpy is H = U + kB*T
                kB is Boltzmann's constant
Total thermal energy              ...   -854.48119880 Eh 
Thermal Enthalpy correction       ...      0.00094421 Eh       0.59 kcal/mol
-----------------------------------------------------------------------
Total Enthalpy                    ...   -854.48025459 Eh


Note: Only C1 symmetry has been detected, increase convergence thresholds 
      if your molecule has a higher symmetry. Symmetry factor of 1.0 is   
      used for the rotational entropy correction. 
 

Note: Rotational entropy computed according to Herzberg 
Infrared and Raman Spectra, Chapter V,1, Van Nostrand Reinhold, 1945 
Point Group:  C1, Symmetry Number:   1  
Rotational constants in cm-1:     0.025124     0.002740     0.002589 

Vibrational entropy computed according to the QRRHO of S. Grimme
Chem.Eur.J. 2012 18 9955 using a reference frequency of 100.0 cm-1


-------
ENTROPY
-------

The entropy contributions are T*S = T*(S(el)+S(vib)+S(rot)+S(trans))
     S(el)   - electronic entropy
     S(vib)  - vibrational entropy
     S(rot)  - rotational entropy
     S(trans)- translational entropy
The entropies will be listed as multiplied by the temperature to get
units of energy

Electronic entropy                ...      0.00000000 Eh      0.00 kcal/mol
Vibrational entropy               ...      0.03871898 Eh     24.30 kcal/mol
Rotational entropy                ...      0.01684710 Eh     10.57 kcal/mol
Translational entropy             ...      0.02036176 Eh     12.78 kcal/mol
-----------------------------------------------------------------------
Final entropy term                ...      0.07592784 Eh     47.65 kcal/mol

In case the symmetry of your molecule has not been determined correctly
or in case you have a reason to use a different symmetry number we print 
out the resulting rotational entropy values for sn=1,12:

 non-linear molecules -----------------------------------
|  sn= 1 | S(rot)=       0.01684710 Eh     10.57 kcal/mol|
|  sn= 2 | S(rot)=       0.01619264 Eh     10.16 kcal/mol|
|  sn= 3 | S(rot)=       0.01580981 Eh      9.92 kcal/mol|
|  sn= 4 | S(rot)=       0.01553818 Eh      9.75 kcal/mol|
|  sn= 5 | S(rot)=       0.01532749 Eh      9.62 kcal/mol|
|  sn= 6 | S(rot)=       0.01515535 Eh      9.51 kcal/mol|
|  sn= 7 | S(rot)=       0.01500980 Eh      9.42 kcal/mol|
|  sn= 8 | S(rot)=       0.01488373 Eh      9.34 kcal/mol|
|  sn= 9 | S(rot)=       0.01477252 Eh      9.27 kcal/mol|
|  sn=10 | S(rot)=       0.01467304 Eh      9.21 kcal/mol|
|  sn=11 | S(rot)=       0.01458305 Eh      9.15 kcal/mol|
|  sn=12 | S(rot)=       0.01450089 Eh      9.10 kcal/mol|
 linear molecules ---------------------------------------
|  Dinfh | S(rot)=       0.01094966 Eh      6.87 kcal/mol|
|  Cinfv | S(rot)=       0.01160412 Eh      7.28 kcal/mol|
 --------------------------------------------------------


-------------------
GIBBS FREE ENERGY
-------------------

The Gibbs free energy is G = H - T*S

Total enthalpy                    ...   -854.48025459 Eh 
Total entropy correction          ...     -0.07592784 Eh    -47.65 kcal/mol
-----------------------------------------------------------------------
Final Gibbs free energy         ...   -854.55618243 Eh

For completeness - the Gibbs free energy minus the electronic energy
G-E(el)                           ...      0.39762933 Eh    249.52 kcal/mol


Maximum memory used throughout the entire PROP-calculation: 135.1 MB

--------------------------------
SUGGESTED CITATIONS FOR THIS RUN
--------------------------------

Below you find a list of papers that are relevant to this ORCA run
We neither can nor want to force you to cite these papers, but we appreciate if you do
You receive ORCA, which is the product of decades of hard work by many enthusiastic individuals, for free
The only thing we kindly ask in return is that you cite our papers,
We deeply appreciate it, if you show your appreciation for ORCA by not just citing the generic ORCA reference.

Please note that relegating all ORCA citations to the supporting information does *not* help us.
SI sections are not indexed - citations you put there will not count into any citation statistics
But we need these citations in order to attract the funding resources that allow us to do what we are doing

Therefore, if you are a happy ORCA user, please consider citing a few of the papers listed below in the main body of your paper

In addition to the list printed below, the program has created the file m1_00_Vitamin_A-GFN1_053-B97-3C-TZ.bibtex that contains the list in bibtex format
You can import this file easily into all common literature databanks and citation aid programs


List of essential papers. We consider these as the minimum necessary citations

  1. Neese,F.
     Software update: the ORCA program system, version 5.0
     WIRES Comput. Molec. Sci., 2022 12(1)e1606
     doi.org/10.1002/wcms.1606

List of papers to cite with high priority. The work reported in these papers was absolutely
necessary for this run to complete.
Our perspective: the developers of density functionals and basis sets usually get cited in chemistry papers
Good! But without the algorithms to do something with them, the functionals or basis sets would not do anything.
Hence, in our opinion, the algorithm design and method developments papers are equally worthy of getting cited

  1. Neese,F.
     An improvement of the resolution of the identity approximation for the formation of the Coulomb matrix
     J. Comp. Chem., 2003 24(14)1740-1747
     doi.org/10.1002/jcc.10318
  2. Bykov,D.; Petrenko,T.; Izsak,R.; Kossmann,S.; Becker,U.; Valeev,E.; Neese,F.
     Efficient implementation of the analytic second derivatives of Hartree-Fock and hybrid DFT energies: a detailed analysis of different approximations
     Molec. Phys., 2015 113 1961-1977
     doi.org/10.1080/00268976.2015.1025114
  3. Neese,F.
     The SHARK Integral Generation and Digestion System
     J. Comp. Chem., 2022  1-16
     doi.org/10.1002/jcc.26942
  4. Grimme,S.; Antony,J.; Ehrlich,S.; Krieg,H.
     A consistent and accurate ab initio parametrization of density functional dispersion correction (DFT-D) for the 94 elements H-Pu
     J. Chem. Phys., 2010 132 154104
     doi.org/10.1063/1.3382344
  5. Grimme,S.; Ehrlich,S.; Goerigk,L.
     Effect of the damping function in dispersion corrected density functional theory
     J. Comput. Chem., 2011 32(7)1456-1465
     doi.org/10.1002/jcc.21759

List of suggested additional citations. These are papers that are important in the 'surrounding' of 
of this run, or papers that preceded the highly important papers. If you like your results we are grateful for a citation.

  1. Neese,F.
     The ORCA program system
     WIRES Comput. Molec. Sci., 2012 2(1)73-78
     doi.org/10.1002/wcms.81
  2. Neese,F.
     Software update: the ORCA program system, version 4.0
     WIRES Comput. Molec. Sci., 2018 8(1)1-6
     doi.org/10.1002/wcms.1327
  3. Neese,F.; Wennmohs,F.; Becker,U.; Riplinger,C.
     The ORCA quantum chemistry program package
     J. Chem. Phys., 2020 152 Art. No. L224108
     doi.org/10.1063/5.0004608

List of optional additional citations

  1. Neese,F.
     Approximate second-order SCF convergence for spin unrestricted wavefunctions
     Chem. Phys. Lett., 2000 325(1-3)93-98
     doi.org/10.1016/s0009-2614(00)00662-x

Timings for individual modules:

Sum of individual times          ...      654.795 sec (=  10.913 min)
Startup calculation              ...       66.759 sec (=   1.113 min)  10.2 %
SCF iterations                   ...      149.917 sec (=   2.499 min)  22.9 %
Property integrals               ...      125.976 sec (=   2.100 min)  19.2 %
SCF Response                     ...      167.661 sec (=   2.794 min)  25.6 %
Property calculations            ...       56.088 sec (=   0.935 min)   8.6 %
SCF Gradient evaluation          ...       88.199 sec (=   1.470 min)  13.5 %
Geometry relaxation              ...        0.195 sec (=   0.003 min)   0.0 %
                             ****ORCA TERMINATED NORMALLY****
TOTAL RUN TIME: 0 days 0 hours 10 minutes 57 seconds 935 msec
