
                                 *****************
                                 * O   R   C   A *
                                 *****************

                                            #,                                       
                                            ###                                      
                                            ####                                     
                                            #####                                    
                                            ######                                   
                                           ########,                                 
                                     ,,################,,,,,                         
                               ,,#################################,,                 
                          ,,##########################################,,             
                       ,#########################################, ''#####,          
                    ,#############################################,,   '####,        
                  ,##################################################,,,,####,       
                ,###########''''           ''''###############################       
              ,#####''   ,,,,##########,,,,          '''####'''          '####       
            ,##' ,,,,###########################,,,                        '##       
           ' ,,###''''                  '''############,,,                           
         ,,##''                                '''############,,,,        ,,,,,,###''
      ,#''                                            '''#######################'''  
     '                                                          ''''####''''         
             ,#######,   #######,   ,#######,      ##                                
            ,#'     '#,  ##    ##  ,#'     '#,    #''#        ,####,   ,####,        
            ##       ##  ##   ,#'  ##            #'  '#       #'       #'  '#        
            ##       ##  #######   ##           ,######,      #####,   #    #        
            '#,     ,#'  ##    ##  '#,     ,#' ,#      #,     #,   #   #,  ,#        
             '#######'   ##     ##  '#######'  #'      '#     '####' # '####'        



                #########################################################
                #                        -***-                          #
                #          Department of theory and spectroscopy        #
                #                                                       #
                #                      Frank Neese                      #
                #                                                       #
                #     Directorship, Architecture, Infrastructure        #
                #                    SHARK, DRIVERS                     #
                #        Core code/Algorithms in most modules           #
                #                                                       #
                #        Max Planck Institute fuer Kohlenforschung      #
                #                Kaiser Wilhelm Platz 1                 #
                #                 D-45470 Muelheim/Ruhr                 #
                #                      Germany                          #
                #                                                       #
                #                  All rights reserved                  #
                #                        -***-                          #
                #########################################################


                         Program Version 6.0.1  -  RELEASE   -


 With contributions from (in alphabetic order):
[Max-Planck-Institut fuer Kohlenforschung]                               
  Daniel Aravena         : Magnetic Suceptibility                        
  Michael Atanasov       : Ab Initio Ligand Field Theory (pilot matlab implementation)
  Alexander A. Auer      : GIAO ZORA, VPT2 properties, NMR spectrum      
  Ute Becker             : All parallelization in ORCA, NUMFREQ, NUMCALC 
  Giovanni Bistoni       : ED, misc. LED, open-shell LED, HFLD           
  Martin Brehm           : Molecular dynamics                            
  Dmytro Bykov           : pre 5.0 version of the SCF Hessian            
  Marcos Casanova-Páez   : Triplet and SCS-CIS(D). UHF-(DLPNO)-IP/EA/STEOM-CCSD. UHF-CVS-IP/STEOM-CCSD   
  Vijay G. Chilkuri      : MRCI spin determinant printing, contributions to CSF-ICE 
  Pauline Colinet        : FMM embedding                                 
  Dipayan Datta          : RHF DLPNO-CCSD density                        
  Achintya Kumar Dutta   : EOM-CC, STEOM-CC                              
  Nicolas Foglia         : Exact transition moments, OPA infrastructure, MCD improvements    
  Dmitry Ganyushin       : Spin-Orbit,Spin-Spin,Magnetic field MRCI      
  Miquel Garcia-Rates    : C-PCM and meta-GGA Hessian, CCSD/C-PCM, Gaussian charge scheme 
  Tiago L. C. Gouveia    : GS-ROHF, GS-ROCIS                             
  Yang Guo               : DLPNO-NEVPT2, F12-NEVPT2, CIM, IAO-localization        
  Andreas Hansen         : Spin unrestricted coupled pair/coupled cluster methods 
  Ingolf Harden          : AUTO-CI MPn and infrastructure                
  Benjamin Helmich-Paris : MC-RPA, TRAH-(SCF,CASSCF), AVAS, COSX integrals, SCF dyn. polar. 
  Lee Huntington         : MR-EOM, pCC                                   
  Robert Izsak           : Overlap fitted RIJCOSX, COSX-SCS-MP3, EOM     
  Riya Kayal             : Wick's Theorem for AUTO-CI, AUTO-CI UHF-CCSDT 
  Emily Kempfer          : AUTO-CI, RHF CISDT and CCSDT                  
  Christian Kollmar      : KDIIS, OOCD, Brueckner-CCSD(T), CCSD density, CASPT2, CASPT2-K, improved NEVPT2 
  Axel Koslowski         : Symmetry handling                             
  Simone Kossmann        : meta-GGA functionals, TD-DFT gradient, OOMP2, (MP2 Hessian; deprecated post 5.0) 
  Lucas Lang             : DCDCAS                                        
  Marvin Lechner         : AUTO-CI (C++ implementation), FIC-MRCC        
  Spencer Leger          : CASSCF response                               
  Dagmar Lenk            : GEPOL surface, SMD, ORCA-2-JSON               
  Dimitrios Liakos       : Extrapolation schemes; Compound Job, initial MDCI parallelization 
  Dimitrios Manganas     : Further ROCIS development; embedding schemes. LFT, Crystal Embedding 
  Dimitrios Pantazis     : SARC Basis sets                               
  Anastasios Papadopoulos: AUTO-CI, single reference methods and gradients 
  Taras Petrenko         : pre 6.0 DFT Hessian and TD-DFT gradient, (ASA, deprecated), ECA, 1-Electron XAS/XES, NRVS 
  Peter Pinski           : DLPNO-MP2, DLPNO-MP2 Gradient                 
  Christoph Reimann      : Effective Core Potentials                     
  Marius Retegan         : Local ZFS, SOC                                
  Christoph Riplinger    : Optimizer, TS searches, QM/MM, DLPNO-CCSD(T), (RO)-DLPNO pert. Triples 
  Michael Roemelt        : Original ROCIS implementation                 
  Masaaki Saitow         : Open-shell DLPNO-CCSD energy and density      
  Barbara Sandhoefer     : DKH picture change effects                    
  Kantharuban Sivalingam : CASSCF convergence/infrastructure, NEVPT2 and variants, FIC-MRCI 
  Bernardo de Souza      : ESD, SOC TD-DFT                               
  Georgi L. Stoychev     : AutoAux, RI-MP2 NMR, DLPNO-MP2 response, X2C  
  Van Anh Tran           : RI-MP2 g-tensors                              
  Willem Van den Heuvel  : Paramagnetic NMR                              
  Zikuan Wang            : NOTCH, Electric field optimization            
  Frank Wennmohs         : Technical directorship and infrastructure     
  Hang Xu                : AUTO-CI-Response properties                   
                                                                         
[FACCTs GmbH]                                                            
  Markus Bursch, Miquel Garcia-Rates, Christoph Riplinger, Bernardo de Souza, Georgi L. Stoychev 
                                                                 
  APM, Basis sets (HGBS, AHGBS, def-TZVP (Ac-Lr), def2-XVPD (La-Lu)), CI-OPT, improved COSX, DLPNO-Multilevel,           
  DOCKER, DRACO, updates on ESD, GOAT, IRC, LR-CPCM, MBIS, meta-GGA TD-DFT gradient, ML-optimized integration grids, 
  MM, NACMEs, nearIR, NEB, NEB-TS, NL-DFT gradient (VV10), 2- and 3-layer-ONIOM, interface openCOSMO-RS, QMMM,   
  Crystal-QMMM, SF, symmetry and pop. for TD-DFT, r2SCAN hybrids, SOLVATOR                                   
                                                                         
[Other institutions]                                                     
  V. Asgeirsson          : NEB                                           
  Christoph Bannwarth    : sTDA-DFT, sTD-DFT, PBEh-3c, B97-3c, D3        
  Sebastian Ehlert       : rSCAN, r2SCAN, r2SCAN-3c, D4, dhf basis sets  
  Marvin Friede          : D4 for Fr, Ra, Ac-Lr                          
  Lars Goerigk           : TD-DFT with DH, B97 family of functionals     
  Stefan Grimme          : VdW corrections, initial TS optimization, DFT functionals, gCP, sTDA/sTD-DF 
  Waldemar Hujo          : DFT-NL                                        
  H. Jonsson             : NEB                                           
  Holger Kruse           : gCP                                           
  Marcel Mueller         : wB97X-3c, vDZP basis set                      
  Hagen Neugebauer       : wr2SCAN                                       
  Tobias Risthaus        : range-separated hybrid DFT                    
  Lukas Wittmann         : regularized MP2, r2SCAN double-hybrids, wr2SCAN        
                                                                         
We gratefully acknowledge several colleagues who have allowed us to      
interface, adapt or use parts of their codes:                            
  Ed Valeev, F. Pavosevic, A. Kumar             : LibInt (2-el integral package), F12 methods 
  Garnet Chan, S. Sharma, J. Yang, R. Olivares  : DMRG                   
  Ulf Ekstrom                                   : XCFun DFT Library      
  Mihaly Kallay                                 : mrcc  (arbitrary order and MRCC methods)
  Frank Weinhold                                : gennbo (NPA and NBO analysis)           
  Simon Mueller                                 : openCOSMO-RS                            
  Christopher J. Cramer and Donald G. Truhlar   : smd solvation model                     
  S Lehtola, MJT Oliveira, MAL Marques          : LibXC Library                           
  Liviu Ungur et al                             : ANISO software                          


 Your calculation uses the libint2 library for the computation of 2-el integrals
 For citations please refer to: http://libint.valeyev.net

 Your ORCA version has been built with support for libXC version: 6.2.2
 For citations please refer to: https://libxc.gitlab.io

 This ORCA versions uses:
   CBLAS   interface :  Fast vector & matrix operations
   LAPACKE interface :  Fast linear algebra routines
   SCALAPACK package :  Parallel linear algebra routines
   Shared memory     :  Shared parallel matrices
   BLAS/LAPACK       :  OpenBLAS 0.3.27  USE64BITINT DYNAMIC_ARCH NO_AFFINITY Zen SINGLE_THREADED
        Core in use  :  Zen
   Copyright (c) 2011-2014, The OpenBLAS Project


NOTE: MaxCore=6000 MB was set to SCF,MP2,MDCI,CIPSI,MRCI and CIS
      => If you want to overwrite this, your respective input block should be placed after the MaxCore statement
Your calculation utilizes the atom-pairwise dispersion correction
with the Becke-Johnson damping scheme (D3BJ)


Your calculation employs the composite approach B97-3c by Grimme and coworkers.
For the correct reference, please check the publication list of the Grimme group:
http://www.thch.uni-bonn.de/tc/index.php?section=publikationen&subsection=grimme#2017
   

XCFun DFT library Copyright 2009-2010 Ulf Ekstrom and contributors.
See http://admol.org/xcfun for more information.
This is free software; see the source code for copying conditions.
There is ABSOLUTELY NO WARRANTY; not even for MERCHANTABILITY or FITNESS FOR A PARTICULAR PURPOSE.
For details see the documentation.
Scientific users of this library should cite U. Ekstrom, L. Visscher, R. Bast, A. J. Thorvaldsen and K. Ruud;
J.Chem.Theor.Comp. 2010, DOI: 10.1021/ct100117s
XCFun Version 0.99 

================================================================================

----- Orbital basis set information -----
Your calculation utilizes the basis: def2-mTZVP
----- AuxJ basis set information -----
Your calculation utilizes the basis: def2-mTZVP/J
================================================================================
                                        WARNINGS
                       Please study these warnings very carefully!
================================================================================


WARNING: Geometry Optimization
  ===> : Switching off AutoStart
         For restart on a previous wavefunction, please use MOREAD

================================================================================
                                       INPUT FILE
================================================================================
NAME = m1_00_Vitamin_B6-QM3_001-B97-3C-TZ.inp
|  1> %pal nprocs 16 end
|  2> %MaxCore 6000
|  3> # put your comments here
|  4> ! B97-3C  OPT  FREQ DEFGRID3 NOTRAH
|  5> %scf MaxIter 800 end
|  6> %output
|  7> Print [P_Hirshfeld] 1
|  8> end
|  9> %geom
| 10> MaxIter 3000
| 11>  TolE 1e-6 #TolE 5e-6 Energy change (a.u.)
| 12>  TolRMSG 3e-5 #TolRMSG 1e-4 RMS gradient (a.u.)
| 13>  TolMaxG 1e-4 #TolMaxG 3e-3 Max. element of gradient (a.u.)
| 14>  TolRMSD 2e-3 #TolRMSD 2e-3 RMS displacement (a.u.)
| 15>  TolMaxD 4e-3 #TolMaxD 4e-3 Max. displacement (a.u.)
| 16> end
| 17> * xyz 0 1
| 18>  O      -2.18093435      -0.89891089      -0.12752311
| 19>  O      -1.25416600       2.36867622       0.81499643
| 20>  O       1.49987454       2.69748284       0.89931233
| 21>  N       1.32464458      -1.76350726       0.04520382
| 22>  C      -0.25724584       0.47661959      -0.27013637
| 23>  C       1.12589690       0.60217672      -0.21735481
| 24>  C      -0.82747285      -0.77780885      -0.13215689
| 25>  C       0.00440714      -1.89555279       0.01658651
| 26>  C      -1.15083487       1.67154211      -0.41305004
| 27>  C       1.77970891       1.95979520      -0.25979820
| 28>  C       1.87396381      -0.55225896      -0.05851762
| 29>  C      -0.57574053      -3.27647198       0.15429307
| 30>  H      -0.73718169       2.37528272      -1.13816634
| 31>  H      -2.13339847       1.35552789      -0.76363761
| 32>  H       2.86534303       1.84340836      -0.33266552
| 33>  H       1.44550132       2.49206316      -1.16271963
| 34>  H       2.95841528      -0.50711155      -0.01196543
| 35>  H      -1.18046721      -3.54433077      -0.71640057
| 36>  H       0.23555280      -3.99176753       0.24557883
| 37>  H      -1.21118981      -3.35575324       1.04048520
| 38>  H      -2.40189316      -1.83193200      -0.05607573
| 39>  H      -1.73966148       1.81936961       1.43953625
| 40>  H       0.53687796       2.73346138       1.00417543
| 41> *
| 42> 
| 43> 
| 44> 
| 45> 
| 46>                          ****END OF INPUT****
================================================================================

                       *****************************
                       * Geometry Optimization Run *
                       *****************************

Geometry optimization settings:
Update method            Update   .... BFGS
Choice of coordinates    CoordSys .... (2022) Redundant Internals
Initial Hessian          InHess   .... Almloef's Model
Max. no of cycles        MaxIter  .... 3000

Convergence Tolerances:
Energy Change            TolE     ....  1.0000e-06 Eh
Max. Gradient            TolMAXG  ....  1.0000e-04 Eh/bohr
RMS Gradient             TolRMSG  ....  3.0000e-05 Eh/bohr
Max. Displacement        TolMAXD  ....  4.0000e-03 bohr
RMS Displacement         TolRMSD  ....  2.0000e-03 bohr
Strict Convergence                .... False

------------------------------------------------------------------------------
                        ORCA OPTIMIZATION COORDINATE SETUP
------------------------------------------------------------------------------

The optimization will be done in redundant internal coordinates (2022)
Making redundant internal coordinates   ...  (2022 redundants) done
Evaluating the initial hessian          ...  (Almloef) done
Evaluating the coordinates              ...  done
Calculating the B-matrix                .... done
Calculating the G-matrix                .... done
Diagonalizing the G-matrix              .... done
The first mode is                       ....   41
The number of degrees of freedom        ....   63

    -----------------------------------------------------------------
                    Redundant Internal Coordinates


    -----------------------------------------------------------------
         Definition                    Initial Value    Approx d2E/dq
    -----------------------------------------------------------------
      1. B(C   5,C   4)                  1.3898         0.625181   
      2. B(C   6,C   4)                  1.3848         0.636748   
      3. B(C   6,O   0)                  1.3589         0.627381   
      4. B(C   7,C   6)                  1.4012         0.599502   
      5. B(C   7,N   3)                  1.3271         0.704978   
      6. B(C   8,O   1)                  1.4159         0.508809   
      7. B(C   8,C   4)                  1.4989         0.418756   
      8. B(C   9,C   5)                  1.5074         0.405843   
      9. B(C   9,O   2)                  1.4022         0.535167   
     10. B(C  10,C   5)                  1.3848         0.636945   
     11. B(C  10,N   3)                  1.3340         0.687344   
     12. B(C  11,C   7)                  1.5042         0.410787   
     13. B(H  12,C   8)                  1.0919         0.357651   
     14. B(H  13,C   8)                  1.0900         0.360035   
     15. B(H  14,C   9)                  1.0943         0.354477   
     16. B(H  15,C   9)                  1.1001         0.346954   
     17. B(H  16,C  10)                  1.0864         0.364909   
     18. B(H  17,C  11)                  1.0934         0.355614   
     19. B(H  18,C  11)                  1.0854         0.366185   
     20. B(H  19,C  11)                  1.0934         0.355693   
     21. B(H  20,O   0)                  0.9615         0.517125   
     22. B(H  21,O   1)                  0.9631         0.514135   
     23. B(H  22,O   1)                  1.8376         0.020694   
     24. B(H  22,O   2)                  0.9694         0.502387   
     25. A(C   6,O   0,H  20)          108.3987         0.370522   
     26. A(C   8,O   1,H  21)          108.5670         0.357133   
     27. A(C   9,O   2,H  22)          107.8918         0.358801   
     28. A(C   7,N   3,C  10)          119.8875         0.446674   
     29. A(C   5,C   4,C   8)          121.6607         0.405334   
     30. A(C   6,C   4,C   8)          119.0872         0.406649   
     31. A(C   5,C   4,C   6)          119.1980         0.436809   
     32. A(C   4,C   5,C  10)          117.8175         0.436833   
     33. A(C   4,C   5,C   9)          120.7921         0.403099   
     34. A(C   9,C   5,C  10)          121.3147         0.404427   
     35. A(O   0,C   6,C   7)          121.3225         0.429543   
     36. A(C   4,C   6,C   7)          119.2540         0.433522   
     37. A(O   0,C   6,C   4)          119.4187         0.434221   
     38. A(N   3,C   7,C  11)          118.2334         0.409979   
     39. A(N   3,C   7,C   6)          120.8978         0.438651   
     40. A(C   6,C   7,C  11)          120.8682         0.400985   
     41. A(H  12,C   8,H  13)          108.3461         0.290520   
     42. A(C   4,C   8,H  13)          109.6896         0.330469   
     43. A(O   1,C   8,H  13)          110.8493         0.339276   
     44. A(C   4,C   8,H  12)          110.5656         0.330106   
     45. A(O   1,C   8,H  12)          106.6369         0.338900   
     46. A(O   1,C   8,C   4)          110.6903         0.388441   
     47. A(H  14,C   9,H  15)          107.3493         0.288436   
     48. A(C   5,C   9,H  15)          109.0919         0.326763   
     49. A(O   2,C   9,H  15)          111.3034         0.340042   
     50. A(C   5,C   9,H  14)          109.6565         0.327920   
     51. A(O   2,C   9,H  14)          107.9990         0.341264   
     52. A(O   2,C   9,C   5)          111.3451         0.389744   
     53. A(N   3,C  10,C   5)          122.9165         0.441452   
     54. A(C   5,C  10,H  16)          120.6320         0.355323   
     55. A(N   3,C  10,H  16)          116.4516         0.357724   
     56. A(H  17,C  11,H  18)          108.5971         0.291032   
     57. A(C   7,C  11,H  18)          108.9303         0.330345   
     58. A(C   7,C  11,H  17)          111.4271         0.328750   
     59. A(H  18,C  11,H  19)          108.5694         0.291042   
     60. A(H  17,C  11,H  19)          107.8322         0.289707   
     61. A(C   7,C  11,H  19)          111.4040         0.328762   
     62. D(C  10,C   5,C   4,C   6)      1.4852         0.027074   
     63. D(C   9,C   5,C   4,C   8)      1.9080         0.027074   
     64. D(C   9,C   5,C   4,C   6)   -175.3934         0.027074   
     65. D(C  10,C   5,C   4,C   8)    178.7866         0.027074   
     66. D(O   0,C   6,C   4,C   5)    177.2904         0.028151   
     67. D(C   4,C   6,O   0,H  20)    177.9691         0.028928   
     68. D(C   7,C   6,C   4,C   5)     -1.9256         0.028151   
     69. D(O   0,C   6,C   4,C   8)     -0.0812         0.028151   
     70. D(C   7,C   6,O   0,H  20)     -2.8316         0.028928   
     71. D(C   7,C   6,C   4,C   8)   -179.2972         0.028151   
     72. D(N   3,C   7,C   6,C   4)      0.9431         0.024774   
     73. D(N   3,C   7,C   6,O   0)   -178.2576         0.024774   
     74. D(C  11,C   7,N   3,C  10)   -179.2262         0.037269   
     75. D(C  11,C   7,C   6,O   0)      1.4648         0.024774   
     76. D(C   6,C   7,N   3,C  10)      0.5033         0.037269   
     77. D(C  11,C   7,C   6,C   4)   -179.3346         0.024774   
     78. D(H  13,C   8,C   4,C   5)    161.1918         0.012969   
     79. D(H  12,C   8,C   4,C   5)     41.7645         0.012969   
     80. D(O   1,C   8,C   4,C   6)    101.1269         0.012969   
     81. D(O   1,C   8,C   4,C   5)    -76.1775         0.012969   
     82. D(H  12,C   8,O   1,H  21)    171.4263         0.022235   
     83. D(H  12,C   8,C   4,C   6)   -140.9312         0.012969   
     84. D(C   4,C   8,O   1,H  21)    -68.2583         0.022235   
     85. D(H  13,C   8,O   1,H  21)     53.6948         0.022235   
     86. D(H  14,C   9,C   5,C   4)   -173.0234         0.012209   
     87. D(O   2,C   9,C   5,C  10)   -109.2559         0.012209   
     88. D(O   2,C   9,C   5,C   4)     67.5126         0.012209   
     89. D(H  15,C   9,O   2,H  22)     67.2695         0.022764   
     90. D(H  14,C   9,O   2,H  22)   -175.1346         0.022764   
     91. D(H  14,C   9,C   5,C  10)     10.2080         0.012209   
     92. D(C   5,C   9,O   2,H  22)    -54.6899         0.022764   
     93. D(H  15,C   9,C   5,C   4)    -55.7193         0.012209   
     94. D(H  16,C  10,C   5,C   9)     -3.1697         0.028169   
     95. D(H  16,C  10,C   5,C   4)    179.9688         0.028169   
     96. D(N   3,C  10,C   5,C   9)    176.8162         0.028169   
     97. D(N   3,C  10,C   5,C   4)     -0.0453         0.028169   
     98. D(H  16,C  10,N   3,C   7)    179.0207         0.035258   
     99. D(C   5,C  10,N   3,C   7)     -0.9657         0.035258   
    100. D(H  19,C  11,C   7,N   3)    118.8084         0.012496   
    101. D(H  18,C  11,C   7,C   6)    179.3407         0.012496   
    102. D(H  18,C  11,C   7,N   3)     -0.9297         0.012496   
    103. D(H  17,C  11,C   7,C   6)     59.5539         0.012496   
    104. D(H  17,C  11,C   7,N   3)   -120.7165         0.012496   
    -----------------------------------------------------------------

Number of atoms                         .... 23
Number of degrees of freedom            .... 104


         *************************************************************
         *                GEOMETRY OPTIMIZATION CYCLE   1            *
         *************************************************************
---------------------------------
CARTESIAN COORDINATES (ANGSTROEM)
---------------------------------
  O     -2.180934   -0.898911   -0.127523
  O     -1.254166    2.368676    0.814996
  O      1.499875    2.697483    0.899312
  N      1.324645   -1.763507    0.045204
  C     -0.257246    0.476620   -0.270136
  C      1.125897    0.602177   -0.217355
  C     -0.827473   -0.777809   -0.132157
  C      0.004407   -1.895553    0.016587
  C     -1.150835    1.671542   -0.413050
  C      1.779709    1.959795   -0.259798
  C      1.873964   -0.552259   -0.058518
  C     -0.575741   -3.276472    0.154293
  H     -0.737182    2.375283   -1.138166
  H     -2.133398    1.355528   -0.763638
  H      2.865343    1.843408   -0.332666
  H      1.445501    2.492063   -1.162720
  H      2.958415   -0.507112   -0.011965
  H     -1.180467   -3.544331   -0.716401
  H      0.235553   -3.991768    0.245579
  H     -1.211190   -3.355753    1.040485
  H     -2.401893   -1.831932   -0.056076
  H     -1.739661    1.819370    1.439536
  H      0.536878    2.733461    1.004175

----------------------------
CARTESIAN COORDINATES (A.U.)
----------------------------
  NO LB      ZA    FRAG     MASS         X           Y           Z
   0 O     8.0000    0    15.999   -4.121369   -1.698695   -0.240984
   1 O     8.0000    0    15.999   -2.370030    4.476149    1.540120
   2 O     8.0000    0    15.999    2.834352    5.097504    1.699454
   3 N     7.0000    0    14.007    2.503215   -3.332546    0.085423
   4 C     6.0000    0    12.011   -0.486124    0.900680   -0.510484
   5 C     6.0000    0    12.011    2.127637    1.137949   -0.410741
   6 C     6.0000    0    12.011   -1.563697   -1.469846   -0.249740
   7 C     6.0000    0    12.011    0.008328   -3.582076    0.031344
   8 C     6.0000    0    12.011   -2.174763    3.158757   -0.780551
   9 C     6.0000    0    12.011    3.363162    3.703476   -0.490947
  10 C     6.0000    0    12.011    3.541278   -1.043618   -0.110582
  11 C     6.0000    0    12.011   -1.087992   -6.191635    0.291572
  12 H     1.0000    0     1.008   -1.393072    4.488634   -2.150823
  13 H     1.0000    0     1.008   -4.031539    2.561576   -1.443066
  14 H     1.0000    0     1.008    5.414714    3.483537   -0.628647
  15 H     1.0000    0     1.008    2.731602    4.709317   -2.197222
  16 H     1.0000    0     1.008    5.590595   -0.958302   -0.022611
  17 H     1.0000    0     1.008   -2.230760   -6.697814   -1.353801
  18 H     1.0000    0     1.008    0.445130   -7.543347    0.464077
  19 H     1.0000    0     1.008   -2.288817   -6.341455    1.966232
  20 H     1.0000    0     1.008   -4.538920   -3.461850   -0.105968
  21 H     1.0000    0     1.008   -3.287484    3.438110    2.720329
  22 H     1.0000    0     1.008    1.014552    5.165493    1.897617

--------------------------------
INTERNAL COORDINATES (ANGSTROEM)
--------------------------------
 O      0   0   0     0.000000000000     0.00000000     0.00000000
 O      1   0   0     3.524821723050     0.00000000     0.00000000
 O      2   1   0     2.774880584874   112.26699180     0.00000000
 N      1   2   3     3.614753810403    87.36161151     6.67476762
 C      1   2   3     2.369177099088    42.64082796   341.38601311
 C      5   1   2     1.389832480979   149.11745168   142.47613428
 C      1   2   3     1.358876450599    69.90472486   358.51863785
 C      4   1   2     1.327132951291    19.61139177   160.57597038
 C      2   1   3     1.415899509934    47.99771942    69.45935542
 C      3   2   1     1.402151043789    96.35085982    40.61284823
 C      4   1   2     1.334028559595   100.27957022   339.55045837
 C      8   4   1     1.504151662893   118.23341637   181.93765226
 H      9   2   1     1.091857796608   106.63694161   177.12358740
 H      9   2   1     1.090049475724   110.84926756    59.39206711
 H     10   3   2     1.094283777344   107.99904093   188.08166819
 H     10   3   2     1.100123176380   111.30344187    70.48578868
 H     11   4   1     1.086388690022   116.45157737   178.62376024
 H     12   8   4     1.093412138043   111.42711069   239.28348327
 H     12   8   4     1.085438934778   108.93032668   359.07029201
 H     12   8   4     1.093351634614   111.40395530   118.80840258
 H      1   2   3     0.961486305431   160.07342482    87.19671039
 H      2   1   3     0.963064691314    60.79798196   243.27041793
 H      3   2   1     0.969357074650    11.96002310   205.68257158

---------------------------
INTERNAL COORDINATES (A.U.)
---------------------------
 O      0   0   0     0.000000000000     0.00000000     0.00000000
 O      1   0   0     6.660947727460     0.00000000     0.00000000
 O      2   1   0     5.243764359748   112.26699180     0.00000000
 N      1   2   3     6.830894743210    87.36161151     6.67476762
 C      1   2   3     4.477095880034    42.64082796   341.38601311
 C      5   1   2     2.626402761079   149.11745168   142.47613428
 C      1   2   3     2.567904341466    69.90472486   358.51863785
 C      4   1   2     2.507917821243    19.61139177   160.57597038
 C      2   1   3     2.675662306929    47.99771942    69.45935542
 C      3   2   1     2.649681471153    96.35085982    40.61284823
 C      4   1   2     2.520948632465   100.27957022   339.55045837
 C      8   4   1     2.842434706750   118.23341637   181.93765226
 H      9   2   1     2.063312212775   106.63694161   177.12358740
 H      9   2   1     2.059894981542   110.84926756    59.39206711
 H     10   3   2     2.067896651972   107.99904093   188.08166819
 H     10   3   2     2.078931516939   111.30344187    70.48578868
 H     11   4   1     2.052977099132   116.45157737   178.62376024
 H     12   8   4     2.066249492407   111.42711069   239.28348327
 H     12   8   4     2.051182321825   108.93032668   359.07029201
 H     12   8   4     2.066135157496   111.40395530   118.80840258
 H      1   2   3     1.816945798780   160.07342482    87.19671039
 H      2   1   3     1.819928515833    60.79798196   243.27041793
 H      3   2   1     1.831819397067    11.96002310   205.68257158

---------------------
BASIS SET INFORMATION
---------------------
There are 4 groups of distinct atoms

 Group   1 Type O   : 11s6p2d contracted to 5s3p2d pattern {62111/411/11}
 Group   2 Type N   : 11s6p1d contracted to 5s3p1d pattern {62111/411/1}
 Group   3 Type C   : 11s6p1d contracted to 5s3p1d pattern {62111/411/1}
 Group   4 Type H   : 5s contracted to 3s pattern {311}

Atom   0O    basis set group =>   1
Atom   1O    basis set group =>   1
Atom   2O    basis set group =>   1
Atom   3N    basis set group =>   2
Atom   4C    basis set group =>   3
Atom   5C    basis set group =>   3
Atom   6C    basis set group =>   3
Atom   7C    basis set group =>   3
Atom   8C    basis set group =>   3
Atom   9C    basis set group =>   3
Atom  10C    basis set group =>   3
Atom  11C    basis set group =>   3
Atom  12H    basis set group =>   4
Atom  13H    basis set group =>   4
Atom  14H    basis set group =>   4
Atom  15H    basis set group =>   4
Atom  16H    basis set group =>   4
Atom  17H    basis set group =>   4
Atom  18H    basis set group =>   4
Atom  19H    basis set group =>   4
Atom  20H    basis set group =>   4
Atom  21H    basis set group =>   4
Atom  22H    basis set group =>   4
---------------------------------
AUXILIARY/J BASIS SET INFORMATION
---------------------------------
There are 4 groups of distinct atoms

 Group   1 Type O   : 8s3p3d contracted to 6s3p3d pattern {311111/111/111}
 Group   2 Type N   : 8s3p3d contracted to 6s3p3d pattern {311111/111/111}
 Group   3 Type C   : 8s3p3d contracted to 6s3p3d pattern {311111/111/111}
 Group   4 Type H   : 5s2p contracted to 3s1p pattern {311/2}

Atom   0O    basis set group =>   1
Atom   1O    basis set group =>   1
Atom   2O    basis set group =>   1
Atom   3N    basis set group =>   2
Atom   4C    basis set group =>   3
Atom   5C    basis set group =>   3
Atom   6C    basis set group =>   3
Atom   7C    basis set group =>   3
Atom   8C    basis set group =>   3
Atom   9C    basis set group =>   3
Atom  10C    basis set group =>   3
Atom  11C    basis set group =>   3
Atom  12H    basis set group =>   4
Atom  13H    basis set group =>   4
Atom  14H    basis set group =>   4
Atom  15H    basis set group =>   4
Atom  16H    basis set group =>   4
Atom  17H    basis set group =>   4
Atom  18H    basis set group =>   4
Atom  19H    basis set group =>   4
Atom  20H    basis set group =>   4
Atom  21H    basis set group =>   4
Atom  22H    basis set group =>   4


           ************************************************************
           *        Program running with 16 parallel MPI-processes    *
           *              working on a common directory               *
           ************************************************************
------------------------------------------------------------------------------
                             ORCA STARTUP CALCULATIONS
                           -- RI-GTO INTEGRALS CHOSEN --
------------------------------------------------------------------------------
------------------------------------------------------------------------------
                   ___                                                        
                  /   \      - P O W E R E D   B Y -                         
                 /     \                                                     
                 |  |  |   _    _      __       _____    __    __             
                 |  |  |  | |  | |    /  \     |  _  \  |  |  /  |          
                  \  \/   | |  | |   /    \    | | | |  |  | /  /          
                 / \  \   | |__| |  /  /\  \   | |_| |  |  |/  /          
                |  |  |   |  __  | /  /__\  \  |    /   |      \           
                |  |  |   | |  | | |   __   |  |    \   |  |\   \          
                \     /   | |  | | |  |  |  |  | |\  \  |  | \   \       
                 \___/    |_|  |_| |__|  |__|  |_| \__\ |__|  \__/        
                                                                              
                      - O R C A' S   B I G   F R I E N D -                    
                                      &                                       
                       - I N T E G R A L  F E E D E R -                       
                                                                              
 v1 FN, 2020, v2 2021, v3 2022-2024                                           
------------------------------------------------------------------------------


----------------------
SHARK INTEGRAL PACKAGE
----------------------

Number of atoms                             ...     23
Number of basis functions                   ...    276
Number of shells                            ...    144
Maximum angular momentum                    ...      2
Integral batch strategy                     ... SHARK/LIBINT Hybrid
RI-J (if used) integral strategy            ... SPLIT-RIJ (Revised 2003 algorithm where possible)
Printlevel                                  ...      1
Contraction scheme used                     ... SEGMENTED contraction
Prescreening option                         ... SCHWARTZ
   Thresh                                   ... 2.500e-11
   Tcut                                     ... 2.500e-12
   Tpresel                                  ... 2.500e-12 
Coulomb Range Separation                    ... NOT USED
Exchange Range Separation                   ... NOT USED
Multipole approximations                    ... NOT USED
Finite Nucleus Model                        ... NOT USED
CABS basis                                  ... NOT available
Auxiliary Coulomb fitting basis             ... AVAILABLE
   # of basis functions in Aux-J            ...    426
   # of shells in Aux-J                     ...    188
   Maximum angular momentum in Aux-J        ...      2
Auxiliary J/K fitting basis                 ... NOT available
Auxiliary Correlation fitting basis         ... NOT available
Auxiliary 'external' fitting basis          ... NOT available

Checking pre-screening integrals            ... done (  0.0 sec) Dimension = 144
Check shell pair data                       ... done (  0.0 sec)
Shell pair information
Shell pair cut-off parameter TPreSel        ...   2.5e-12
Total number of shell pairs                 ...     10440
Shell pairs after pre-screening             ...      9095
Total number of primitive shell pairs       ...     37972
Primitive shell pairs kept                  ...     22595
          la=0 lb=0:   3575 shell pairs
          la=1 lb=0:   3048 shell pairs
          la=1 lb=1:    644 shell pairs
          la=2 lb=0:   1202 shell pairs
          la=2 lb=1:    514 shell pairs
          la=2 lb=2:    112 shell pairs

Calculating one electron integrals          ... done (  0.0 sec)
Calculating RI/J V-Matrix + Cholesky decomp.... done (  0.0 sec)
Calculating Nuclear repulsion               ... done (  0.0 sec) ENN=    731.995377174820 Eh

Diagonalization of the overlap matrix:
Smallest eigenvalue                        ... 2.679e-05
Time for diagonalization                   ...    0.005 sec
Threshold for overlap eigenvalues          ... 1.000e-07
Number of eigenvalues below threshold      ... 0
Time for construction of square roots      ...    0.003 sec
Total time needed                          ...    0.009 sec

-------------------
DFT GRID GENERATION
-------------------

General Integration Accuracy     IntAcc      ... 4.959
Radial Grid Type                 RadialGrid  ... OptM3 with GC (2021)
Angular Grid (max. ang.)         AngularGrid ... 6 (Lebedev-590)
Angular grid pruning method      GridPruning ... 4 (adaptive)
Weight generation scheme         WeightScheme... mBecke (2022)
Basis function cutoff            BFCut       ... 1.0000e-11
Integration weight cutoff        WCut        ... 1.0000e-14
Partially contracted basis set               ... off
Rotationally invariant grid construction     ... off
Angular grids for H and He will be reduced by one unit
Diffuse basis detected: some atoms will have their outermost
                        angular grid increased by 1.

Total number of grid points                  ...   267228
Total number of batches                      ...     4185
Average number of points per batch           ...       63
Average number of grid points per atom       ...    11619
Initializing property integral containers    ... done (  0.0 sec)

SHARK setup successfully completed in   2.1 seconds

Maximum memory used throughout the entire STARTUP-calculation: 57.7 MB


           ************************************************************
           *        Program running with 16 parallel MPI-processes    *
           *              working on a common directory               *
           ************************************************************
-------------------------------------------------------------------------------
                                 ORCA GUESS
                   Start orbitals & Density for SCF / CASSCF
-------------------------------------------------------------------------------

------------
SCF SETTINGS
------------
Hamiltonian:
 Density Functional     Method          .... DFT(GTOs)
 Exchange Functional    Exchange        .... B973C
 Correlation Functional Correlation     .... B973C
 Gradients option       PostSCFGGA      .... off
 RI-approximation to the Coulomb term is turned on
   Number of AuxJ basis functions       .... 426


General Settings:
 Integral files         IntName         .... m1_00_Vitamin_B6-QM3_001-B97-3C-TZ
 Hartree-Fock type      HFTyp           .... RHF
 Total Charge           Charge          ....    0
 Multiplicity           Mult            ....    1
 Number of Electrons    NEL             ....   90
 Basis Dimension        Dim             ....  276
 Nuclear Repulsion      ENuc            ....    731.9953771748 Eh

Convergence Acceleration:
 AO-DIIS                CNVDIIS         .... on
   Start iteration      DIISMaxIt       ....    12
   Startup error        DIISStart       ....  0.200000
   # of expansion vecs  DIISMaxEq       ....     5
   Bias factor          DIISBfac        ....   1.050
   Max. coefficient     DIISMaxC        ....  10.000
 MO-DIIS                CNVKDIIS        .... off
 Trust-Rad. Augm. Hess. CNVTRAH         .... off
 SOSCF                  CNVSOSCF        .... on
   Start iteration      SOSCFMaxIt      ....   150
   Startup grad/error   SOSCFStart      ....  0.003300
   Hessian update       SOSCFHessUp     .... L-BFGS
 Level Shifting         CNVShift        .... on
   Level shift para.    LevelShift      ....    0.2500
   Turn off err/grad.   ShiftErr        ....    0.0010
 Zerner damping         CNVZerner       .... off
 Static damping         CNVDamp         .... on
   Fraction old density DampFac         ....    0.7000
   Max. Damping (<1)    DampMax         ....    0.9800
   Min. Damping (>=0)   DampMin         ....    0.0000
   Turn off err/grad.   DampErr         ....    0.1000

SCF Procedure:
 Maximum # iterations   MaxIter         ....   800
 SCF integral mode      SCFMode         .... Direct
   Integral package                     .... SHARK and LIBINT hybrid scheme
 Reset frequency        DirectResetFreq ....    20
 Integral Threshold     Thresh          ....  2.500e-11 Eh
 Primitive CutOff       TCut            ....  2.500e-12 Eh

Convergence Tolerance:
 Convergence Check Mode ConvCheckMode   .... Total+1el-Energy
 Convergence forced     ConvForced      .... 0
 Energy Change          TolE            ....  1.000e-08 Eh
 1-El. energy change                    ....  1.000e-05 Eh
 Orbital Gradient       TolG            ....  1.000e-05
 Orbital Rotation angle TolX            ....  1.000e-05
 DIIS Error             TolErr          ....  5.000e-07

--------------------------------
INITIAL GUESS: MINIMAL BASIS EHT
--------------------------------
The minimal basis has 71 functions
EHT matrix was diagonalized
Basis set overlap was calculated now projecting the orbitals
Using GuessMode=FMatrix for the initial guess
C*T matrix was formed
Effective Fockian was calculated
Effective Fockian was diagonalized
Initial density was built
                      ------------------
                      INITIAL GUESS DONE
                      ------------------
             **** ENERGY FILE WAS UPDATED (m1_00_Vitamin_B6-QM3_001-B97-3C-TZ.en.tmp) ****
Finished Guess after   0.1 sec
Maximum memory used throughout the entire GUESS-calculation: 16.1 MB


           ************************************************************
           *        Program running with 16 parallel MPI-processes    *
           *              working on a common directory               *
           ************************************************************

-------------------------------------------------------------------------------------------
                                      ORCA LEAN-SCF
                              memory conserving SCF solver
-------------------------------------------------------------------------------------------

----------------------------------------D-I-I-S--------------------------------------------
Iteration    Energy (Eh)           Delta-E    RMSDP     MaxDP     DIISErr   Damp  Time(sec)
-------------------------------------------------------------------------------------------
               ***  Starting incremental Fock matrix formation  ***
    1    -589.6060617990835908     0.00e+00  8.65e-03  2.81e-01  4.65e-01  0.700   0.3
Warning: op=0 Small HOMO/LUMO gap (   0.087) - skipping pre-diagonalization
         Will do a full diagonalization
    2    -590.2840766844799418    -6.78e-01  9.59e-03  6.44e-01  3.31e-01  0.700   0.3
    3    -590.6489787657774286    -3.65e-01  4.19e-03  1.71e-01  2.32e-01  0.700   0.3
                               ***Turning on AO-DIIS***
    4    -590.8998849929744210    -2.51e-01  2.83e-03  1.67e-01  1.61e-01  0.700   0.3
    5    -591.0765944555153055    -1.77e-01  2.04e-03  1.19e-01  1.12e-01  0.700   0.3
    6    -591.2014585895151413    -1.25e-01  1.30e-03  4.76e-02  7.82e-02  0.700   0.3
    7    -591.2903199259344547    -8.89e-02  3.11e-03  6.77e-02  5.49e-02  0.000   0.3
    8    -591.4954519007774252    -2.05e-01  6.23e-04  4.54e-02  2.22e-02  0.000   0.3
                              *** Initializing SOSCF ***
---------------------------------------S-O-S-C-F--------------------------------------
Iteration    Energy (Eh)           Delta-E    RMSDP     MaxDP     MaxGrad    Time(sec)
--------------------------------------------------------------------------------------
    9    -591.4973541083866166    -1.90e-03  8.78e-05  5.89e-03  2.70e-03     0.3
               *** Restarting incremental Fock matrix formation ***
   10    -591.4973819952335816    -2.79e-05  9.47e-05  6.83e-03  2.55e-04     0.3
   11    -591.4973674691559609     1.45e-05  6.32e-05  4.43e-03  6.90e-04     0.3
   12    -591.4973877497818648    -2.03e-05  2.50e-05  9.47e-04  1.53e-04     0.3
   13    -591.4973858001812914     1.95e-06  2.36e-05  1.39e-03  2.84e-04     0.3
   14    -591.4973882925576163    -2.49e-06  1.43e-05  8.65e-04  3.47e-05     0.3
   15    -591.4973882192430210     7.33e-08  5.76e-06  2.40e-04  4.37e-05     0.3
   16    -591.4973883347311130    -1.15e-07  7.76e-06  4.32e-04  3.77e-06     0.3
   17    -591.4973883262855452     8.45e-09  3.24e-06  1.71e-04  8.22e-06     0.3
                 **** Energy Check signals convergence ****

               *****************************************************
               *                     SUCCESS                       *
               *           SCF CONVERGED AFTER  17 CYCLES          *
               *****************************************************

             **** ENERGY FILE WAS UPDATED (m1_00_Vitamin_B6-QM3_001-B97-3C-TZ.en.tmp) ****

----------------
TOTAL SCF ENERGY
----------------

Total Energy       :       -591.49738832628555 Eh          -16095.46221 eV

Components:
Nuclear Repulsion  :        731.99537717481962 Eh           19918.60686 eV
Electronic Energy  :      -1323.49276550110517 Eh          -36014.06907 eV
One Electron Energy:      -2258.49145595873961 Eh          -61456.67691 eV
Two Electron Energy:        934.99869045763444 Eh           25442.60784 eV

Virial components:
Potential Energy   :      -1180.97980043131201 Eh          -32136.09414 eV
Kinetic Energy     :        589.48241210502636 Eh           16040.63192 eV
Virial Ratio       :          2.00341821262158

DFT components:
N(Alpha)           :       45.000002216451 electrons
N(Beta)            :       45.000002216451 electrons
N(Total)           :       90.000004432902 electrons
E(XC)              :      -79.843356942550 Eh       

---------------
SCF CONVERGENCE
---------------

  Last Energy change         ...   -8.4456e-09  Tolerance :   1.0000e-08
  Last MAX-Density change    ...    1.7086e-04  Tolerance :   1.0000e-07
  Last RMS-Density change    ...    3.2445e-06  Tolerance :   5.0000e-09
  Last DIIS Error            ...    2.6981e-03  Tolerance :   5.0000e-07
  Last Orbital Gradient      ...    8.2153e-06  Tolerance :   1.0000e-05
  Last Orbital Rotation      ...    9.4775e-06  Tolerance :   1.0000e-05


----------------
ORBITAL ENERGIES
----------------

  NO   OCC          E(Eh)            E(eV) 
   0   2.0000     -18.799610      -511.5634 
   1   2.0000     -18.773190      -510.8445 
   2   2.0000     -18.724325      -509.5148 
   3   2.0000     -13.984080      -380.5262 
   4   2.0000      -9.965689      -271.1802 
   5   2.0000      -9.955104      -270.8922 
   6   2.0000      -9.937290      -270.4074 
   7   2.0000      -9.936946      -270.3980 
   8   2.0000      -9.918383      -269.8929 
   9   2.0000      -9.912521      -269.7334 
  10   2.0000      -9.905571      -269.5443 
  11   2.0000      -9.905556      -269.5439 
  12   2.0000      -1.009616       -27.4731 
  13   2.0000      -0.973832       -26.4993 
  14   2.0000      -0.930684       -25.3252 
  15   2.0000      -0.873368       -23.7656 
  16   2.0000      -0.760408       -20.6918 
  17   2.0000      -0.722130       -19.6502 
  18   2.0000      -0.675764       -18.3885 
  19   2.0000      -0.649342       -17.6695 
  20   2.0000      -0.607230       -16.5236 
  21   2.0000      -0.581141       -15.8137 
  22   2.0000      -0.556841       -15.1524 
  23   2.0000      -0.511870       -13.9287 
  24   2.0000      -0.490762       -13.3543 
  25   2.0000      -0.474283       -12.9059 
  26   2.0000      -0.444630       -12.0990 
  27   2.0000      -0.441618       -12.0170 
  28   2.0000      -0.416240       -11.3265 
  29   2.0000      -0.406434       -11.0596 
  30   2.0000      -0.391851       -10.6628 
  31   2.0000      -0.388826       -10.5805 
  32   2.0000      -0.371223       -10.1015 
  33   2.0000      -0.369975       -10.0675 
  34   2.0000      -0.364561        -9.9202 
  35   2.0000      -0.356640        -9.7047 
  36   2.0000      -0.347144        -9.4463 
  37   2.0000      -0.329426        -8.9641 
  38   2.0000      -0.314211        -8.5501 
  39   2.0000      -0.292060        -7.9474 
  40   2.0000      -0.256522        -6.9803 
  41   2.0000      -0.244211        -6.6453 
  42   2.0000      -0.225731        -6.1425 
  43   2.0000      -0.213421        -5.8075 
  44   2.0000      -0.205883        -5.6024 
  45   0.0000      -0.062438        -1.6990 
  46   0.0000      -0.036148        -0.9836 
  47   0.0000      -0.007471        -0.2033 
  48   0.0000       0.017962         0.4888 
  49   0.0000       0.040591         1.1045 
  50   0.0000       0.058367         1.5882 
  51   0.0000       0.065540         1.7834 
  52   0.0000       0.070987         1.9316 
  53   0.0000       0.079014         2.1501 
  54   0.0000       0.091438         2.4882 
  55   0.0000       0.095382         2.5955 
*Only the first 10 virtual orbitals were printed.

                    ********************************
                    * MULLIKEN POPULATION ANALYSIS *
                    ********************************

-----------------------
MULLIKEN ATOMIC CHARGES
-----------------------
   0 O :   -0.581218
   1 O :   -0.599505
   2 O :   -0.527035
   3 N :   -0.038198
   4 C :    0.134801
   5 C :    0.175422
   6 C :    0.327409
   7 C :   -0.038775
   8 C :   -0.360156
   9 C :   -0.351182
  10 C :   -0.204163
  11 C :   -0.733133
  12 H :    0.201836
  13 H :    0.195198
  14 H :    0.170579
  15 H :    0.152920
  16 H :    0.151075
  17 H :    0.190950
  18 H :    0.216002
  19 H :    0.191327
  20 H :    0.466617
  21 H :    0.445543
  22 H :    0.413687
Sum of atomic charges:    0.0000000

--------------------------------
MULLIKEN REDUCED ORBITAL CHARGES
--------------------------------
  0 O s       :     3.778759  s :     3.778759
      pz      :     1.846155  p :     4.738667
      px      :     1.377226
      py      :     1.515286
      dz2     :     0.009868  d :     0.063792
      dxz     :     0.009758
      dyz     :     0.009876
      dx2y2   :     0.022732
      dxy     :     0.011559

  1 O s       :     3.813619  s :     3.813619
      pz      :     1.280730  p :     4.748272
      px      :     1.800744
      py      :     1.666798
      dz2     :     0.001726  d :     0.037615
      dxz     :     0.002185
      dyz     :     0.015832
      dx2y2   :     0.010189
      dxy     :     0.007682

  2 O s       :     3.794905  s :     3.794905
      pz      :     1.494523  p :     4.712626
      px      :     1.473401
      py      :     1.744703
      dz2     :     0.006234  d :     0.019503
      dxz     :    -0.003449
      dyz     :     0.005159
      dx2y2   :     0.009765
      dxy     :     0.001794

  3 N s       :     3.435327  s :     3.435327
      pz      :     1.127015  p :     3.556591
      px      :     1.128395
      py      :     1.301182
      dz2     :     0.004896  d :     0.046280
      dxz     :     0.007838
      dyz     :     0.006600
      dx2y2   :     0.017730
      dxy     :     0.009215

  4 C s       :     3.079391  s :     3.079391
      pz      :     1.000653  p :     2.738974
      px      :     0.805462
      py      :     0.932858
      dz2     :     0.003597  d :     0.046834
      dxz     :     0.006083
      dyz     :     0.005791
      dx2y2   :     0.015110
      dxy     :     0.016253

  5 C s       :     3.044684  s :     3.044684
      pz      :     0.944705  p :     2.732163
      px      :     0.933229
      py      :     0.854229
      dz2     :     0.003690  d :     0.047731
      dxz     :     0.006333
      dyz     :     0.005802
      dx2y2   :     0.016498
      dxy     :     0.015408

  6 C s       :     2.975677  s :     2.975677
      pz      :     0.957524  p :     2.625076
      px      :     0.750798
      py      :     0.916754
      dz2     :     0.004611  d :     0.071839
      dxz     :     0.016554
      dyz     :     0.006521
      dx2y2   :     0.022542
      dxy     :     0.021611

  7 C s       :     3.194168  s :     3.194168
      pz      :     0.997963  p :     2.780956
      px      :     0.897555
      py      :     0.885438
      dz2     :     0.003885  d :     0.063651
      dxz     :     0.009577
      dyz     :     0.005812
      dx2y2   :     0.018664
      dxy     :     0.025714

  8 C s       :     3.350548  s :     3.350548
      pz      :     0.829454  p :     2.943886
      px      :     1.108908
      py      :     1.005524
      dz2     :     0.013213  d :     0.065722
      dxz     :     0.012507
      dyz     :     0.017849
      dx2y2   :     0.008728
      dxy     :     0.013426

  9 C s       :     3.310566  s :     3.310566
      pz      :     0.883438  p :     2.972133
      px      :     1.120422
      py      :     0.968273
      dz2     :     0.020245  d :     0.068483
      dxz     :     0.007563
      dyz     :     0.017453
      dx2y2   :     0.014795
      dxy     :     0.008428

 10 C s       :     3.204379  s :     3.204379
      pz      :     0.984370  p :     2.942290
      px      :     1.004800
      py      :     0.953120
      dz2     :     0.004383  d :     0.057495
      dxz     :     0.002652
      dyz     :     0.008863
      dx2y2   :     0.023723
      dxy     :     0.017874

 11 C s       :     3.406789  s :     3.406789
      pz      :     1.075633  p :     3.289544
      px      :     1.180380
      py      :     1.033531
      dz2     :     0.006646  d :     0.036799
      dxz     :     0.011054
      dyz     :     0.003840
      dx2y2   :     0.005626
      dxy     :     0.009634

 12 H s       :     0.798164  s :     0.798164

 13 H s       :     0.804802  s :     0.804802

 14 H s       :     0.829421  s :     0.829421

 15 H s       :     0.847080  s :     0.847080

 16 H s       :     0.848925  s :     0.848925

 17 H s       :     0.809050  s :     0.809050

 18 H s       :     0.783998  s :     0.783998

 19 H s       :     0.808673  s :     0.808673

 20 H s       :     0.533383  s :     0.533383

 21 H s       :     0.554457  s :     0.554457

 22 H s       :     0.586313  s :     0.586313



                     *******************************
                     * LOEWDIN POPULATION ANALYSIS *
                     *******************************

----------------------
LOEWDIN ATOMIC CHARGES
----------------------
   0 O :   -0.648904
   1 O :   -0.721681
   2 O :   -0.732087
   3 N :   -0.161630
   4 C :    0.000804
   5 C :   -0.035563
   6 C :    0.190966
   7 C :    0.006360
   8 C :    0.043910
   9 C :    0.026721
  10 C :   -0.077262
  11 C :   -0.413730
  12 H :    0.192021
  13 H :    0.198278
  14 H :    0.181595
  15 H :    0.160731
  16 H :    0.161511
  17 H :    0.165859
  18 H :    0.183703
  19 H :    0.166489
  20 H :    0.375645
  21 H :    0.368090
  22 H :    0.368173

-------------------------------
LOEWDIN REDUCED ORBITAL CHARGES
-------------------------------
  0 O s       :     3.515336  s :     3.515336
      pz      :     1.829169  p :     4.794000
      px      :     1.468172
      py      :     1.496659
      dz2     :     0.038956  d :     0.339568
      dxz     :     0.079262
      dyz     :     0.022361
      dx2y2   :     0.110289
      dxy     :     0.088700

  1 O s       :     3.547604  s :     3.547604
      pz      :     1.394863  p :     4.828167
      px      :     1.761666
      py      :     1.671638
      dz2     :     0.093270  d :     0.345910
      dxz     :     0.078196
      dyz     :     0.089440
      dx2y2   :     0.040685
      dxy     :     0.044319

  2 O s       :     3.546123  s :     3.546123
      pz      :     1.599178  p :     4.859942
      px      :     1.497712
      py      :     1.763052
      dz2     :     0.098723  d :     0.326022
      dxz     :     0.057458
      dyz     :     0.067426
      dx2y2   :     0.069846
      dxy     :     0.032569

  3 N s       :     3.214249  s :     3.214249
      pz      :     1.129430  p :     3.860725
      px      :     1.300699
      py      :     1.430595
      dz2     :     0.009231  d :     0.086656
      dxz     :     0.014364
      dyz     :     0.009742
      dx2y2   :     0.033845
      dxy     :     0.019475

  4 C s       :     2.830482  s :     2.830482
      pz      :     0.976815  p :     3.073049
      px      :     1.061802
      py      :     1.034431
      dz2     :     0.006860  d :     0.095665
      dxz     :     0.010880
      dyz     :     0.010206
      dx2y2   :     0.032701
      dxy     :     0.035019

  5 C s       :     2.854669  s :     2.854669
      pz      :     0.941772  p :     3.082225
      px      :     1.077000
      py      :     1.063453
      dz2     :     0.007318  d :     0.098669
      dxz     :     0.011960
      dyz     :     0.010029
      dx2y2   :     0.035618
      dxy     :     0.033743

  6 C s       :     2.776002  s :     2.776002
      pz      :     0.928543  p :     2.873597
      px      :     0.883696
      py      :     1.061358
      dz2     :     0.011716  d :     0.159435
      dxz     :     0.031889
      dyz     :     0.011889
      dx2y2   :     0.054118
      dxy     :     0.049822

  7 C s       :     2.829642  s :     2.829642
      pz      :     0.968514  p :     3.029580
      px      :     1.016701
      py      :     1.044365
      dz2     :     0.008890  d :     0.134418
      dxz     :     0.016704
      dyz     :     0.009968
      dx2y2   :     0.043119
      dxy     :     0.055738

  8 C s       :     2.849814  s :     2.849814
      pz      :     0.903727  p :     2.976734
      px      :     1.071100
      py      :     1.001907
      dz2     :     0.027949  d :     0.129542
      dxz     :     0.023271
      dyz     :     0.037865
      dx2y2   :     0.014899
      dxy     :     0.025558

  9 C s       :     2.853919  s :     2.853919
      pz      :     0.942829  p :     2.984038
      px      :     1.062553
      py      :     0.978656
      dz2     :     0.041513  d :     0.135321
      dxz     :     0.014237
      dyz     :     0.036045
      dx2y2   :     0.027434
      dxy     :     0.016092

 10 C s       :     2.882140  s :     2.882140
      pz      :     0.973792  p :     3.077865
      px      :     1.074400
      py      :     1.029673
      dz2     :     0.008422  d :     0.117257
      dxz     :     0.003856
      dyz     :     0.016576
      dx2y2   :     0.050237
      dxy     :     0.038166

 11 C s       :     2.981833  s :     2.981833
      pz      :     1.130461  p :     3.371971
      px      :     1.154225
      py      :     1.087285
      dz2     :     0.010175  d :     0.059926
      dxz     :     0.016963
      dyz     :     0.006757
      dx2y2   :     0.010016
      dxy     :     0.016014

 12 H s       :     0.807979  s :     0.807979

 13 H s       :     0.801722  s :     0.801722

 14 H s       :     0.818405  s :     0.818405

 15 H s       :     0.839269  s :     0.839269

 16 H s       :     0.838489  s :     0.838489

 17 H s       :     0.834141  s :     0.834141

 18 H s       :     0.816297  s :     0.816297

 19 H s       :     0.833511  s :     0.833511

 20 H s       :     0.624355  s :     0.624355

 21 H s       :     0.631910  s :     0.631910

 22 H s       :     0.631827  s :     0.631827



                      *****************************
                      * MAYER POPULATION ANALYSIS *
                      *****************************

  NA   - Mulliken gross atomic population
  ZA   - Total nuclear charge
  QA   - Mulliken gross atomic charge
  VA   - Mayer's total valence
  BVA  - Mayer's bonded valence
  FA   - Mayer's free valence

  ATOM       NA         ZA         QA         VA         BVA        FA
  0 O      8.5812     8.0000    -0.5812     1.9674     1.9674     0.0000
  1 O      8.5995     8.0000    -0.5995     1.7761     1.7761    -0.0000
  2 O      8.5270     8.0000    -0.5270     1.7371     1.7371     0.0000
  3 N      7.0382     7.0000    -0.0382     3.2471     3.2471    -0.0000
  4 C      5.8652     6.0000     0.1348     3.4553     3.4553     0.0000
  5 C      5.8246     6.0000     0.1754     3.4190     3.4190    -0.0000
  6 C      5.6726     6.0000     0.3274     3.8605     3.8605     0.0000
  7 C      6.0388     6.0000    -0.0388     3.6771     3.6771     0.0000
  8 C      6.3602     6.0000    -0.3602     3.6765     3.6765    -0.0000
  9 C      6.3512     6.0000    -0.3512     3.9627     3.9627    -0.0000
 10 C      6.2042     6.0000    -0.2042     4.0318     4.0318    -0.0000
 11 C      6.7331     6.0000    -0.7331     3.6142     3.6142     0.0000
 12 H      0.7982     1.0000     0.2018     0.9193     0.9193    -0.0000
 13 H      0.8048     1.0000     0.1952     0.9578     0.9578    -0.0000
 14 H      0.8294     1.0000     0.1706     0.9342     0.9342    -0.0000
 15 H      0.8471     1.0000     0.1529     0.9218     0.9218    -0.0000
 16 H      0.8489     1.0000     0.1511     0.9510     0.9510     0.0000
 17 H      0.8091     1.0000     0.1909     0.9314     0.9314     0.0000
 18 H      0.7840     1.0000     0.2160     0.9669     0.9669    -0.0000
 19 H      0.8087     1.0000     0.1913     0.9312     0.9312    -0.0000
 20 H      0.5334     1.0000     0.4666     0.7525     0.7525     0.0000
 21 H      0.5545     1.0000     0.4455     0.7762     0.7762    -0.0000
 22 H      0.5863     1.0000     0.4137     0.8435     0.8435     0.0000

  Mayer bond orders larger than 0.100000
B(  0-O ,  6-C ) :   1.0234 B(  0-O , 20-H ) :   0.7221 B(  1-O ,  8-C ) :   0.9425 
B(  1-O , 21-H ) :   0.7564 B(  1-O , 22-H ) :   0.1272 B(  2-O ,  9-C ) :   1.0954 
B(  2-O , 22-H ) :   0.7152 B(  3-N ,  7-C ) :   1.6576 B(  3-N , 10-C ) :   1.5174 
B(  4-C ,  5-C ) :   1.3281 B(  4-C ,  6-C ) :   1.5240 B(  4-C ,  8-C ) :   0.7751 
B(  5-C ,  9-C ) :   0.8692 B(  5-C , 10-C ) :   1.3717 B(  6-C ,  7-C ) :   1.2281 
B(  7-C , 11-C ) :   0.7740 B(  8-C , 12-H ) :   0.9417 B(  8-C , 13-H ) :   0.9818 
B(  9-C , 14-H ) :   0.9397 B(  9-C , 15-H ) :   0.9772 B( 10-C , 16-H ) :   0.9456 
B( 11-C , 17-H ) :   0.9651 B( 11-C , 18-H ) :   0.9469 B( 11-C , 19-H ) :   0.9588 



------------------
HIRSHFELD ANALYSIS
------------------

Total integrated alpha density =     45.000002217
Total integrated beta density  =     45.000002217

  ATOM     CHARGE      SPIN    
   0 O   -0.185852    0.000000
   1 O   -0.191140    0.000000
   2 O   -0.258456    0.000000
   3 N   -0.189100    0.000000
   4 C   -0.020030    0.000000
   5 C   -0.008640    0.000000
   6 C    0.063560    0.000000
   7 C    0.042869    0.000000
   8 C    0.036994    0.000000
   9 C    0.032173    0.000000
  10 C    0.013974    0.000000
  11 C   -0.076681    0.000000
  12 H    0.043250    0.000000
  13 H    0.032200    0.000000
  14 H    0.038787    0.000000
  15 H    0.018875    0.000000
  16 H    0.041247    0.000000
  17 H    0.034461    0.000000
  18 H    0.048488    0.000000
  19 H    0.034616    0.000000
  20 H    0.165885    0.000000
  21 H    0.171606    0.000000
  22 H    0.110909    0.000000

  TOTAL  -0.000004    0.000000

-------
TIMINGS
-------

Total SCF time: 0 days 0 hours 0 min 5 sec 

Total time                  ....       5.766 sec
Sum of individual times     ....       5.683 sec  ( 98.6%)

SCF preparation             ....       0.152 sec  (  2.6%)
Fock matrix formation       ....       4.690 sec  ( 81.3%)
  Startup                   ....       0.013 sec  (  0.3% of F)
  Split-RI-J                ....       0.741 sec  ( 15.8% of F)
  XC integration            ....       3.677 sec  ( 78.4% of F)
    XC Preparation          ....       0.000 sec  (  0.0% of XC)
    Basis function eval.    ....       0.873 sec  ( 23.7% of XC)
    Density eval.           ....       0.722 sec  ( 19.6% of XC)
    XC-Functional eval.     ....       0.107 sec  (  2.9% of XC)
    XC-Potential eval.      ....       0.702 sec  ( 19.1% of XC)
Diagonalization             ....       0.000 sec  (  0.0%)
Density matrix formation    ....       0.045 sec  (  0.8%)
Total Energy calculation    ....       0.026 sec  (  0.4%)
Population analysis         ....       0.408 sec  (  7.1%)
Orbital Transformation      ....       0.037 sec  (  0.6%)
Orbital Orthonormalization  ....       0.000 sec  (  0.0%)
DIIS solution               ....       0.220 sec  (  3.8%)
SOSCF solution              ....       0.106 sec  (  1.8%)
Finished LeanSCF after   5.8 sec

Maximum memory used throughout the entire LEANSCF-calculation: 43.3 MB


           ************************************************************
           *        Program running with 16 parallel MPI-processes    *
           *              working on a common directory               *
           ************************************************************

------------------------------------------------------------------------------
                         ORCA PROPERTY INTEGRAL CALCULATIONS
------------------------------------------------------------------------------

GBWName                                   ... m1_00_Vitamin_B6-QM3_001-B97-3C-TZ.gbw
Number of atoms                           ...     23
Number of basis functions                 ...    276
Max core memory                           ...   6000 MB

Dipole integrals                          ... YES
Quadrupole integrals                      ...  NO
Linear momentum integrals                 ...  NO
Angular momentum integrals                ...  NO
Higher moments length integrals           ...  NO
Higher moments velocity integrals         ...  NO
Kinetic energy integrals                  ...  NO
GIAO right hand sides                     ...  NO
GIAO dipole derivative integrals          ...  NO
SOC integrals                             ...  NO
EPR diamagnetic integrals (GIAO)          ...  NO
EPR gauge integrals                       ...  NO
Field gradient integrals                  ...  NO (   0 nuclei)
Spin-dipole/Fermi contact integrals       ...  NO (   0 nuclei)
Contact density integrals                 ...  NO (   0 nuclei)
Nucleus-orbit integrals                   ...  NO (   0 nuclei)
Geometric perturbations                   ...  NO (  23 nuclei)

Choice of electric origin   ... Center of mass
Position of electric origin ... (  0.1107,  0.2215,  0.1272) 
Choice of magnetic origin   ... GIAO
Position of magnetic origin ... (  0.0000,  0.0000,  0.0000) 

Calculating integrals                     ... Electric Dipole (Length)     done (  0.0 sec)

Property integrals calculated in   0.0 sec

Maximum memory used throughout the entire PROPINT-calculation: 16.7 MB


-------------------------------------------------------------------------------
                          DFT DISPERSION CORRECTION                            
                                                                               
                              DFTD3 V3.1  Rev 1                                
                          USING Becke-Johnson damping                          
-------------------------------------------------------------------------------
The B97-3c composite method is recognized
Using three-body term ABC
Active option DFTDOPT                   ...         4   

molecular C6(AA) [au] = 5021.358570 


            DFT-D V3
 parameters
 s6 scaling factor         :     1.0000 
 a1 scaling factor         :     0.3700 
 s8 scaling factor         :     1.5000 
 a2 scaling factor         :     4.1000 
 Damping factor alpha9(ATM):    16.0000 
 ad hoc parameters k1-k3   :    16.0000     1.3333    -4.0000 

 Edisp/kcal,au: -35.156288501699  -0.056025105922 
 E6   /kcal   : -17.928694244 
 E8   /kcal   : -17.285684903 
 E6(ABC)      :   0.058090645 
 % E8         :  49.168116543 
 % E6(ABC)    :  -0.165235431 

-------------------------   ----------------
Dispersion correction           -0.056025106
-------------------------   ----------------

------------------   -----------------
SRB correction            -0.068079627
------------------   -----------------

-------------------------   --------------------
FINAL SINGLE POINT ENERGY      -591.621493059008
-------------------------   --------------------



           ************************************************************
           *        Program running with 16 parallel MPI-processes    *
           *              working on a common directory               *
           ************************************************************
------------------------------------------------------------------------------
                         ORCA SCF GRADIENT CALCULATION
------------------------------------------------------------------------------

Nuc. rep. gradient        (SHARK) ... done (  0.0 sec)
HCore & Overlap gradient  (SHARK) ... done (  0.0 sec)
Split-RIJ-J gradient      (SHARK) ... done (  0.1 sec)
XC gradient                       ... done (  1.9 sec)
Dispersion correction             ... done (  0.1 sec)

-------------------
DISPERSION GRADIENT
-------------------

   1   O   :   -0.000923677   -0.000167943   -0.000071829
   2   O   :   -0.000691556    0.000647355    0.000418132
   3   O   :    0.000598899    0.000736939    0.000455764
   4   N   :    0.000876621   -0.000546305    0.000067819
   5   C   :   -0.000490493    0.000123066   -0.000328336
   6   C   :    0.000921360    0.000071657   -0.000196163
   7   C   :   -0.000634628   -0.000409146   -0.000130640
   8   C   :    0.000027628   -0.000844054    0.000063621
   9   C   :   -0.000924444    0.000648284   -0.000255910
  10   C   :    0.000875950    0.000725147   -0.000099299
  11   C   :    0.001047250   -0.000546166    0.000009354
  12   C   :   -0.000128393   -0.000925477    0.000094561
  13   H   :   -0.000355645    0.000393316   -0.000405778
  14   H   :   -0.000422594    0.000265453   -0.000214275
  15   H   :    0.000416666    0.000271283   -0.000079191
  16   H   :    0.000346334    0.000416681   -0.000333822
  17   H   :    0.000519266   -0.000205828    0.000028355
  18   H   :   -0.000142725   -0.000466193   -0.000154366
  19   H   :    0.000033313   -0.000424446    0.000045892
  20   H   :   -0.000150609   -0.000425501    0.000245937
  21   H   :   -0.000500891   -0.000140914   -0.000002969
  22   H   :   -0.000404057    0.000300256    0.000454655
  23   H   :    0.000106423    0.000502535    0.000388489

Difference to translation invariance:
           :    0.0000000000    0.0000000000    0.0000000000

Difference to rotation invariance:
           :   -0.0000000000    0.0000000000   -0.0000000000

Norm of the Dispersion gradient    ...    0.0038971126
RMS gradient                       ...    0.0004691572
MAX gradient                       ...    0.0010472502
SRB correction                   ... done

------------------
CARTESIAN GRADIENT
------------------

   1   O   :    0.006135143   -0.002878535    0.000883825
   2   O   :    0.005689375   -0.012952906   -0.008320055
   3   O   :   -0.007038849   -0.007963854   -0.006636243
   4   N   :   -0.005852144    0.003701403   -0.000368220
   5   C   :    0.009252471   -0.004144585    0.004849075
   6   C   :   -0.008573074   -0.000858383    0.001203781
   7   C   :   -0.010672321    0.007303147   -0.001421787
   8   C   :    0.000243856    0.001060985   -0.000573907
   9   C   :   -0.000597136    0.009334819    0.010174339
  10   C   :    0.001836167    0.008412147    0.006930401
  11   C   :    0.003948121    0.002244385   -0.000080928
  12   C   :   -0.001536098   -0.005919950    0.000651741
  13   H   :    0.002210395    0.000715482   -0.002964388
  14   H   :   -0.000799351   -0.002800313    0.000726485
  15   H   :    0.003611540   -0.001085254   -0.001033831
  16   H   :   -0.002614525   -0.000396203    0.000107248
  17   H   :    0.001934036    0.000262440   -0.000084856
  18   H   :   -0.000567872    0.001565453   -0.000238843
  19   H   :    0.001327616   -0.000091887    0.000075390
  20   H   :   -0.000594032    0.001473441   -0.000084691
  21   H   :    0.001887842    0.001779250   -0.000212632
  22   H   :   -0.001120747    0.001365144   -0.000662963
  23   H   :    0.001889585   -0.000126226   -0.002918943

Difference to translation invariance:
           :   -0.0000000000    0.0000000000   -0.0000000000

Difference to rotation invariance:
           :   -0.0000040701    0.0000387468    0.0000369767

Norm of the Cartesian gradient     ...    0.0366666826
RMS gradient                       ...    0.0044141499
MAX gradient                       ...    0.0129529056

-------
TIMINGS
-------

Total SCF gradient time     ....        2.119 sec

Densities                   ....       0.001 sec  (  0.1%)
One electron gradient       ....       0.049 sec  (  2.3%)
RI-J Coulomb gradient       ....       0.130 sec  (  6.1%)
XC gradient                 ....       1.869 sec  ( 88.2%)

Maximum memory used throughout the entire SCFGRAD-calculation: 51.5 MB
------------------------------------------------------------------------------
                         ORCA GEOMETRY RELAXATION STEP
------------------------------------------------------------------------------

Reading the OPT-File                    .... done
Getting information on internals        .... done
Copying old internal coords+grads       .... done
Making the new internal coordinates     .... (2022 redundants) done
Validating the new internal coordinates .... (2022 redundants) done
Calculating the B-matrix                .... done
Calculating the G,G- and P matrices     .... done
Transforming gradient to internals      .... done
Projecting the internal gradient        .... done
Number of atoms                         ....  23
Number of internal coordinates          .... 104
Current Energy                          ....  -591.621493059 Eh
Current gradient norm                   ....     0.036666683 Eh/bohr
Maximum allowed component of the step   ....  0.300
Current trust radius                    ....  0.300
Evaluating the initial hessian          ....  (Almloef) done
Projecting the Hessian                  .... done
Forming the augmented Hessian           .... done
Diagonalizing the augmented Hessian     .... done
Last element of RFO vector              ....  0.962638923
Lowest eigenvalues of augmented Hessian:
 -0.003839189  0.012496195  0.013233762  0.017105531  0.021587579
Length of the computed step             ....  0.281297894
The final length of the internal step   ....  0.281297894
Converting the step to Cartesian space:
 Initial RMS(Int)=    0.0275835279
Transforming coordinates:
 Iter   0:  RMS(Cart)=    0.0778548597 RMS(Int)=    1.0648408793
 Iter   5:  RMS(Cart)=    0.0000004660 RMS(Int)=    0.0000002438
done
Storing new coordinates                 .... done

                                .--------------------.
          ----------------------|Geometry convergence|-------------------------
          Item                value                   Tolerance       Converged
          ---------------------------------------------------------------------
          RMS gradient        0.0030310864            0.0000300000      NO
          MAX gradient        0.0143594908            0.0001000000      NO
          RMS step            0.0275835279            0.0020000000      NO
          MAX step            0.1286793203            0.0040000000      NO
          ........................................................
          Max(Bonds)      0.0681      Max(Angles)    1.28
          Max(Dihed)        4.87      Max(Improp)    0.00
          ---------------------------------------------------------------------

The optimization has not yet converged - more geometry cycles are needed


    ---------------------------------------------------------------------------
                         Redundant Internal Coordinates
                            (Angstroem and degrees)

        Definition                    Value    dE/dq     Step     New-Value
    ----------------------------------------------------------------------------
     1. B(C   5,C   4)                1.3898 -0.005275  0.0061    1.3959   
     2. B(C   6,C   4)                1.3848 -0.005096  0.0046    1.3894   
     3. B(C   6,O   0)                1.3589 -0.007891  0.0066    1.3655   
     4. B(C   7,C   6)                1.4012 -0.002527  0.0020    1.4033   
     5. B(C   7,N   3)                1.3271 -0.000708  0.0001    1.3272   
     6. B(C   8,O   1)                1.4159 -0.014359  0.0147    1.4306   
     7. B(C   8,C   4)                1.4989 -0.004593  0.0065    1.5054   
     8. B(C   9,C   5)                1.5074  0.000782  0.0001    1.5075   
     9. B(C   9,O   2)                1.4022 -0.011150  0.0109    1.4131   
    10. B(C  10,C   5)                1.3848 -0.001791  0.0016    1.3864   
    11. B(C  10,N   3)                1.3340  0.001704 -0.0016    1.3324   
    12. B(C  11,C   7)                1.5042  0.003295 -0.0042    1.4999   
    13. B(H  12,C   8)                1.0919  0.003268 -0.0048    1.0871   
    14. B(H  13,C   8)                1.0900  0.001299 -0.0019    1.0882   
    15. B(H  14,C   9)                1.0943  0.003768 -0.0056    1.0887   
    16. B(H  15,C   9)                1.1001  0.000514 -0.0008    1.0993   
    17. B(H  16,C  10)                1.0864  0.001938 -0.0028    1.0836   
    18. B(H  17,C  11)                1.0934  0.000121 -0.0002    1.0932   
    19. B(H  18,C  11)                1.0854  0.001059 -0.0015    1.0839   
    20. B(H  19,C  11)                1.0934  0.000170 -0.0003    1.0931   
    21. B(H  20,O   0)                0.9615 -0.002176  0.0022    0.9637   
    22. B(H  21,O   1)                0.9631 -0.000644  0.0007    0.9637   
    23. B(H  22,O   1)                1.8376 -0.004563  0.0681    1.9057   
    24. B(H  22,O   2)                0.9694 -0.006531  0.0054    0.9748   
    25. A(C   6,O   0,H  20)          108.40 -0.002590    0.40    108.80   
    26. A(C   8,O   1,H  21)          108.57  0.000736   -0.12    108.45   
    27. A(C   9,O   2,H  22)          107.89 -0.001680    0.39    108.28   
    28. A(C   7,N   3,C  10)          119.89  0.004155   -0.61    119.27   
    29. A(C   5,C   4,C   8)          121.66  0.001247    0.18    121.84   
[...]
     35      -0.000017   0.000017   0.000029
     36      -0.001958  -0.006357   0.000063
     37      -0.002353  -0.010479  -0.000131
     38       0.004738   0.009682   0.000190
     39       0.001945  -0.002171   0.001739
     40       0.003561   0.000836  -0.000138
     41       0.005329   0.002050   0.000588
     42       0.023164   0.000200  -0.000081
     43      -0.005794  -0.000156   0.000131
     44      -0.004805  -0.000000  -0.000001
     45      -0.001961  -0.000215   0.000038
     46       0.000268   0.000023  -0.000177
     47      -0.009903  -0.000173   0.000107
     48      -0.001561  -0.000300   0.000206
     49       0.000277   0.000073  -0.000041
     50      -0.000068   0.000013  -0.000009
     51      -0.000171   0.000039   0.000141
     52      -0.000331   0.000042   0.004009
     53      -0.000271  -0.000017   0.005487
     54      -0.000028  -0.000045   0.000051
     55       0.000100   0.000063   0.001621
     56       0.000003   0.000011  -0.000085
     57      -0.000217   0.000143   0.000373
     58      -0.000265   0.000065   0.002648
     59       0.000373  -0.000107  -0.005702
     60      -0.000051   0.001007  -0.251265
     61      -0.000062   0.004517  -0.961842
     62      -0.000103  -0.000234   0.088019
     63       0.011251  -0.335683  -0.001716
     64       0.015977  -0.582287  -0.002529
     65      -0.016932   0.737162   0.003436
     66       0.975562   0.025446   0.000120
     67      -0.127821  -0.001134   0.000169
     68      -0.162885  -0.004147   0.000056


-----------
IR SPECTRUM
-----------

 Mode   freq       eps      Int      T**2         TX        TY        TZ
       cm**-1   L/(mol*cm) km/mol    a.u.
----------------------------------------------------------------------------
  6:     82.96   0.000273    1.38  0.001026  ( 0.000003  0.031369 -0.006452)
  7:     86.50   0.000217    1.10  0.000783  (-0.018753  0.019281  0.007718)
  8:     92.38   0.000848    4.28  0.002864  ( 0.027553 -0.041780 -0.018957)
  9:    147.20   0.000174    0.88  0.000368  (-0.002737 -0.014319  0.012481)
 10:    170.03   0.000352    1.78  0.000645  ( 0.002349 -0.000120 -0.025293)
 11:    199.76   0.000085    0.43  0.000133  ( 0.005938 -0.001949  0.009701)
 12:    251.54   0.000297    1.50  0.000368  (-0.012853  0.013820 -0.003501)
 13:    294.32   0.000445    2.25  0.000472  (-0.018974 -0.000668 -0.010574)
 14:    305.96   0.003200   16.17  0.003264  ( 0.056261 -0.004568  0.008812)
 15:    323.35   0.002653   13.41  0.002560  ( 0.043239 -0.005423  0.025710)
 16:    339.73   0.002212   11.18  0.002032  ( 0.004877 -0.005753 -0.044439)
 17:    343.84   0.016215   81.94  0.014716  (-0.062686  0.015920  0.102631)
 18:    371.98   0.010760   54.38  0.009027  (-0.091295  0.003537 -0.026065)
 19:    429.84   0.001204    6.08  0.000874  ( 0.020450 -0.006846 -0.020216)
 20:    496.90   0.002983   15.07  0.001873  ( 0.043098 -0.003231  0.002317)
 21:    522.18   0.000528    2.67  0.000316  (-0.015444 -0.000631  0.008757)
 22:    529.97   0.001086    5.49  0.000639  (-0.023330  0.000183 -0.009741)
 23:    597.73   0.000962    4.86  0.000502  ( 0.002158  0.016845  0.014618)
 24:    626.57   0.019066   96.35  0.009496  ( 0.019546 -0.092881  0.022062)
 25:    645.76   0.000761    3.84  0.000368  (-0.011163 -0.014565  0.005555)
 26:    689.74   0.008847   44.71  0.004003  (-0.001419  0.054662 -0.031820)
 27:    745.50   0.001774    8.96  0.000743  ( 0.000665 -0.026204  0.007446)
 28:    799.07   0.000276    1.39  0.000108  (-0.006024 -0.005879  0.006068)
 29:    884.58   0.003154   15.94  0.001113  (-0.028192 -0.009898 -0.014832)
 30:    902.72   0.001509    7.62  0.000522  (-0.003008  0.007480  0.021367)
 31:    938.12   0.007640   38.61  0.002541  (-0.009775 -0.039865 -0.029271)
 32:    963.13   0.001879    9.50  0.000609  (-0.001444  0.006823  0.023669)
 33:    988.75   0.007888   39.86  0.002490  (-0.007090  0.028106  0.040613)
 34:   1021.31   0.003872   19.57  0.001183  ( 0.019958  0.009904  0.026202)
 35:   1030.89   0.020461  103.40  0.006194  ( 0.004046 -0.056376 -0.054766)
 36:   1047.05   0.000513    2.59  0.000153  (-0.000584  0.002950  0.011998)
 37:   1089.38   0.001545    7.81  0.000443  (-0.019341 -0.008265  0.000360)
 38:   1189.31   0.006681   33.76  0.001753  ( 0.037464 -0.011605 -0.014654)
 39:   1223.29   0.005131   25.93  0.001309  ( 0.009716 -0.028286 -0.020356)
 40:   1246.56   0.002433   12.29  0.000609  ( 0.023163  0.005346  0.006630)
 41:   1248.46   0.026180  132.31  0.006544  (-0.080652 -0.000065 -0.006266)
 42:   1270.49   0.002357   11.91  0.000579  ( 0.012998 -0.018768  0.007591)
 43:   1307.76   0.001014    5.12  0.000242  ( 0.001957 -0.013370  0.007704)
 44:   1339.97   0.008783   44.38  0.002045  ( 0.042129  0.015932  0.004084)
 45:   1370.20   0.003925   19.84  0.000894  (-0.013438 -0.025643 -0.007469)
 46:   1374.42   0.000560    2.83  0.000127  (-0.000041  0.010017 -0.005186)
 47:   1403.00   0.002583   13.05  0.000575  (-0.020740 -0.009585  0.007247)
 48:   1408.04   0.009870   49.88  0.002187  ( 0.011699 -0.039603 -0.021959)
 49:   1419.59   0.023682  119.68  0.005206  ( 0.061543  0.037369  0.004678)
 50:   1470.67   0.013490   68.17  0.002862  (-0.019355 -0.039768 -0.030104)
 51:   1482.72   0.002668   13.48  0.000562  (-0.022751  0.006514  0.001234)
 52:   1498.05   0.001908    9.64  0.000398  (-0.000552  0.002322  0.019796)
 53:   1503.72   0.000516    2.61  0.000107  (-0.006583  0.007913  0.001103)
 54:   1510.10   0.000667    3.37  0.000138  ( 0.007789  0.007358 -0.004794)
 55:   1525.87   0.000966    4.88  0.000198  ( 0.003522 -0.005752  0.012334)
 56:   1582.36   0.002309   11.67  0.000455  (-0.021118  0.002547 -0.001726)
 57:   1625.21   0.001411    7.13  0.000271  ( 0.006832  0.014690 -0.002890)
 58:   2927.61   0.013728   69.38  0.001463  (-0.001880 -0.016593  0.034416)
 59:   2972.19   0.006622   33.47  0.000695  (-0.017894 -0.019349  0.000853)
 60:   3018.92   0.004349   21.98  0.000450  (-0.001012  0.002250  0.021058)
 61:   3041.22   0.006565   33.18  0.000674  ( 0.012126 -0.008909  0.021148)
 62:   3053.06   0.006441   32.55  0.000658  ( 0.025224 -0.000846 -0.004632)
 63:   3084.12   0.002252   11.38  0.000228  ( 0.012127  0.008764 -0.001997)
 64:   3110.01   0.005937   30.00  0.000596  ( 0.023723  0.005738 -0.000187)
 65:   3115.00   0.000969    4.90  0.000097  (-0.005181  0.008309 -0.001101)
 66:   3582.40   0.032107  162.25  0.002797  ( 0.052040 -0.005022 -0.007967)
 67:   3736.53   0.003978   20.10  0.000332  (-0.007151 -0.000748  0.016749)
 68:   3751.92   0.012110   61.20  0.001007  (-0.016768 -0.026892  0.001707)

* The epsilon (eps) is given for a Dirac delta lineshape.
** The dipole moment derivative (T) already includes vibrational overlap.

The first frequency considered to be a vibration is 6
The total number of vibrations considered is 63


--------------------------
THERMOCHEMISTRY AT 298.15K
--------------------------

Temperature         ...   298.15 K
Pressure            ...     1.00 atm
Total Mass          ...   169.18 AMU
Quasi RRHO          ...     True
Cut-Off Frequency   ...     1.00 cm^-1

Throughout the following assumptions are being made:
  (1) The electronic state is orbitally nondegenerate
  (2) There are no thermally accessible electronically excited states
  (3) Hindered rotations indicated by low frequency modes are not
      treated as such but are treated as vibrations and this may
      cause some error
  (4) All equations used are the standard statistical mechanics
      equations for an ideal gas
  (5) All vibrations are strictly harmonic

freq.      82.96  E(vib)   ...       0.48 
freq.      86.50  E(vib)   ...       0.48 
freq.      92.38  E(vib)   ...       0.47 
freq.     147.20  E(vib)   ...       0.41 
freq.     170.03  E(vib)   ...       0.38 
freq.     199.76  E(vib)   ...       0.35 
freq.     251.54  E(vib)   ...       0.30 
freq.     294.32  E(vib)   ...       0.27 
freq.     305.96  E(vib)   ...       0.26 
freq.     323.35  E(vib)   ...       0.25 
freq.     339.73  E(vib)   ...       0.23 
freq.     343.84  E(vib)   ...       0.23 
freq.     371.98  E(vib)   ...       0.21 
freq.     429.84  E(vib)   ...       0.18 
freq.     496.90  E(vib)   ...       0.14 
freq.     522.18  E(vib)   ...       0.13 
freq.     529.97  E(vib)   ...       0.13 
freq.     597.73  E(vib)   ...       0.10 
freq.     626.57  E(vib)   ...       0.09 
freq.     645.76  E(vib)   ...       0.09 
freq.     689.74  E(vib)   ...       0.07 
freq.     745.50  E(vib)   ...       0.06 
freq.     799.07  E(vib)   ...       0.05 
freq.     884.58  E(vib)   ...       0.04 
freq.     902.72  E(vib)   ...       0.03 
freq.     938.12  E(vib)   ...       0.03 
freq.     963.13  E(vib)   ...       0.03 
freq.     988.75  E(vib)   ...       0.02 
freq.    1021.31  E(vib)   ...       0.02 
freq.    1030.89  E(vib)   ...       0.02 
freq.    1047.05  E(vib)   ...       0.02 
freq.    1089.38  E(vib)   ...       0.02 
freq.    1189.31  E(vib)   ...       0.01 
freq.    1223.29  E(vib)   ...       0.01 
freq.    1246.56  E(vib)   ...       0.01 
freq.    1248.46  E(vib)   ...       0.01 
freq.    1270.49  E(vib)   ...       0.01 
freq.    1307.76  E(vib)   ...       0.01 
freq.    1339.97  E(vib)   ...       0.01 
freq.    1370.20  E(vib)   ...       0.01 
freq.    1374.42  E(vib)   ...       0.01 
freq.    1403.00  E(vib)   ...       0.00 
freq.    1408.04  E(vib)   ...       0.00 
freq.    1419.59  E(vib)   ...       0.00 
freq.    1470.67  E(vib)   ...       0.00 
freq.    1482.72  E(vib)   ...       0.00 
freq.    1498.05  E(vib)   ...       0.00 
freq.    1503.72  E(vib)   ...       0.00 
freq.    1510.10  E(vib)   ...       0.00 
freq.    1525.87  E(vib)   ...       0.00 
freq.    1582.36  E(vib)   ...       0.00 
freq.    1625.21  E(vib)   ...       0.00 
freq.    2927.61  E(vib)   ...       0.00 
freq.    2972.19  E(vib)   ...       0.00 
freq.    3018.92  E(vib)   ...       0.00 
freq.    3041.22  E(vib)   ...       0.00 
freq.    3053.06  E(vib)   ...       0.00 
freq.    3084.12  E(vib)   ...       0.00 
freq.    3110.01  E(vib)   ...       0.00 
freq.    3115.00  E(vib)   ...       0.00 
freq.    3582.40  E(vib)   ...       0.00 
freq.    3736.53  E(vib)   ...       0.00 
freq.    3751.92  E(vib)   ...       0.00 

------------
INNER ENERGY
------------

The inner energy is: U= E(el) + E(ZPE) + E(vib) + E(rot) + E(trans)
    E(el)   - is the total energy from the electronic structure calculation
              = E(kin-el) + E(nuc-el) + E(el-el) + E(nuc-nuc)
    E(ZPE)  - the the zero temperature vibrational energy from the frequency calculation
    E(vib)  - the the finite temperature correction to E(ZPE) due to population
              of excited vibrational states
    E(rot)  - is the rotational thermal energy
    E(trans)- is the translational thermal energy

Summary of contributions to the inner energy U:
Electronic energy                ...   -591.62429420 Eh
Zero point energy                ...      0.18533239 Eh     116.30 kcal/mol
Thermal vibrational correction   ...      0.00907455 Eh       5.69 kcal/mol
Thermal rotational correction    ...      0.00141627 Eh       0.89 kcal/mol
Thermal translational correction ...      0.00141627 Eh       0.89 kcal/mol
-----------------------------------------------------------------------
Total thermal energy                   -591.42705471 Eh


Summary of corrections to the electronic energy:
(perhaps to be used in another calculation)
Total thermal correction                  0.01190709 Eh       7.47 kcal/mol
Non-thermal (ZPE) correction              0.18533239 Eh     116.30 kcal/mol
-----------------------------------------------------------------------
Total correction                          0.19723949 Eh     123.77 kcal/mol


--------
ENTHALPY
--------

The enthalpy is H = U + kB*T
                kB is Boltzmann's constant
Total thermal energy              ...   -591.42705471 Eh 
Thermal Enthalpy correction       ...      0.00094421 Eh       0.59 kcal/mol
-----------------------------------------------------------------------
Total Enthalpy                    ...   -591.42611051 Eh


Note: Only C1 symmetry has been detected, increase convergence thresholds 
      if your molecule has a higher symmetry. Symmetry factor of 1.0 is   
      used for the rotational entropy correction. 
 

Note: Rotational entropy computed according to Herzberg 
Infrared and Raman Spectra, Chapter V,1, Van Nostrand Reinhold, 1945 
Point Group:  C1, Symmetry Number:   1  
Rotational constants in cm-1:     0.049201     0.025200     0.017828 

Vibrational entropy computed according to the QRRHO of S. Grimme
Chem.Eur.J. 2012 18 9955 using a reference frequency of 100.0 cm-1


-------
ENTROPY
-------

The entropy contributions are T*S = T*(S(el)+S(vib)+S(rot)+S(trans))
     S(el)   - electronic entropy
     S(vib)  - vibrational entropy
     S(rot)  - rotational entropy
     S(trans)- translational entropy
The entropies will be listed as multiplied by the temperature to get
units of energy

Electronic entropy                ...      0.00000000 Eh      0.00 kcal/mol
Vibrational entropy               ...      0.01540769 Eh      9.67 kcal/mol
Rotational entropy                ...      0.01457150 Eh      9.14 kcal/mol
Translational entropy             ...      0.01961591 Eh     12.31 kcal/mol
-----------------------------------------------------------------------
Final entropy term                ...      0.04959509 Eh     31.12 kcal/mol

In case the symmetry of your molecule has not been determined correctly
or in case you have a reason to use a different symmetry number we print 
out the resulting rotational entropy values for sn=1,12:

 non-linear molecules -----------------------------------
|  sn= 1 | S(rot)=       0.01457150 Eh      9.14 kcal/mol|
|  sn= 2 | S(rot)=       0.01391704 Eh      8.73 kcal/mol|
|  sn= 3 | S(rot)=       0.01353421 Eh      8.49 kcal/mol|
|  sn= 4 | S(rot)=       0.01326258 Eh      8.32 kcal/mol|
|  sn= 5 | S(rot)=       0.01305190 Eh      8.19 kcal/mol|
|  sn= 6 | S(rot)=       0.01287975 Eh      8.08 kcal/mol|
|  sn= 7 | S(rot)=       0.01273420 Eh      7.99 kcal/mol|
|  sn= 8 | S(rot)=       0.01260813 Eh      7.91 kcal/mol|
|  sn= 9 | S(rot)=       0.01249692 Eh      7.84 kcal/mol|
|  sn=10 | S(rot)=       0.01239744 Eh      7.78 kcal/mol|
|  sn=11 | S(rot)=       0.01230745 Eh      7.72 kcal/mol|
|  sn=12 | S(rot)=       0.01222529 Eh      7.67 kcal/mol|
 linear molecules ---------------------------------------
|  Dinfh | S(rot)=       0.00912800 Eh      5.73 kcal/mol|
|  Cinfv | S(rot)=       0.00978246 Eh      6.14 kcal/mol|
 --------------------------------------------------------


-------------------
GIBBS FREE ENERGY
-------------------

The Gibbs free energy is G = H - T*S

Total enthalpy                    ...   -591.42611051 Eh 
Total entropy correction          ...     -0.04959509 Eh    -31.12 kcal/mol
-----------------------------------------------------------------------
Final Gibbs free energy         ...   -591.47570560 Eh

For completeness - the Gibbs free energy minus the electronic energy
G-E(el)                           ...      0.14858860 Eh     93.24 kcal/mol


Maximum memory used throughout the entire PROP-calculation: 69.6 MB

--------------------------------
SUGGESTED CITATIONS FOR THIS RUN
--------------------------------

Below you find a list of papers that are relevant to this ORCA run
We neither can nor want to force you to cite these papers, but we appreciate if you do
You receive ORCA, which is the product of decades of hard work by many enthusiastic individuals, for free
The only thing we kindly ask in return is that you cite our papers,
We deeply appreciate it, if you show your appreciation for ORCA by not just citing the generic ORCA reference.

Please note that relegating all ORCA citations to the supporting information does *not* help us.
SI sections are not indexed - citations you put there will not count into any citation statistics
But we need these citations in order to attract the funding resources that allow us to do what we are doing

Therefore, if you are a happy ORCA user, please consider citing a few of the papers listed below in the main body of your paper

In addition to the list printed below, the program has created the file m1_00_Vitamin_B6-QM3_001-B97-3C-TZ.bibtex that contains the list in bibtex format
You can import this file easily into all common literature databanks and citation aid programs


List of essential papers. We consider these as the minimum necessary citations

  1. Neese,F.
     Software update: the ORCA program system, version 5.0
     WIRES Comput. Molec. Sci., 2022 12(1)e1606
     doi.org/10.1002/wcms.1606

List of papers to cite with high priority. The work reported in these papers was absolutely
necessary for this run to complete.
Our perspective: the developers of density functionals and basis sets usually get cited in chemistry papers
Good! But without the algorithms to do something with them, the functionals or basis sets would not do anything.
Hence, in our opinion, the algorithm design and method developments papers are equally worthy of getting cited

  1. Neese,F.
     An improvement of the resolution of the identity approximation for the formation of the Coulomb matrix
     J. Comp. Chem., 2003 24(14)1740-1747
     doi.org/10.1002/jcc.10318
  2. Bykov,D.; Petrenko,T.; Izsak,R.; Kossmann,S.; Becker,U.; Valeev,E.; Neese,F.
     Efficient implementation of the analytic second derivatives of Hartree-Fock and hybrid DFT energies: a detailed analysis of different approximations
     Molec. Phys., 2015 113 1961-1977
     doi.org/10.1080/00268976.2015.1025114
  3. Neese,F.
     The SHARK Integral Generation and Digestion System
     J. Comp. Chem., 2022  1-16
     doi.org/10.1002/jcc.26942
  4. Grimme,S.; Antony,J.; Ehrlich,S.; Krieg,H.
     A consistent and accurate ab initio parametrization of density functional dispersion correction (DFT-D) for the 94 elements H-Pu
     J. Chem. Phys., 2010 132 154104
     doi.org/10.1063/1.3382344
  5. Grimme,S.; Ehrlich,S.; Goerigk,L.
     Effect of the damping function in dispersion corrected density functional theory
     J. Comput. Chem., 2011 32(7)1456-1465
     doi.org/10.1002/jcc.21759

List of suggested additional citations. These are papers that are important in the 'surrounding' of 
of this run, or papers that preceded the highly important papers. If you like your results we are grateful for a citation.

  1. Neese,F.
     The ORCA program system
     WIRES Comput. Molec. Sci., 2012 2(1)73-78
     doi.org/10.1002/wcms.81
  2. Neese,F.
     Software update: the ORCA program system, version 4.0
     WIRES Comput. Molec. Sci., 2018 8(1)1-6
     doi.org/10.1002/wcms.1327
  3. Neese,F.; Wennmohs,F.; Becker,U.; Riplinger,C.
     The ORCA quantum chemistry program package
     J. Chem. Phys., 2020 152 Art. No. L224108
     doi.org/10.1063/5.0004608

List of optional additional citations

  1. Neese,F.
     Approximate second-order SCF convergence for spin unrestricted wavefunctions
     Chem. Phys. Lett., 2000 325(1-3)93-98
     doi.org/10.1016/s0009-2614(00)00662-x

Timings for individual modules:

Sum of individual times          ...      152.476 sec (=   2.541 min)
Startup calculation              ...       22.676 sec (=   0.378 min)  14.9 %
SCF iterations                   ...       33.314 sec (=   0.555 min)  21.8 %
Property integrals               ...       34.819 sec (=   0.580 min)  22.8 %
SCF Response                     ...       24.640 sec (=   0.411 min)  16.2 %
Property calculations            ...       15.899 sec (=   0.265 min)  10.4 %
SCF Gradient evaluation          ...       21.086 sec (=   0.351 min)  13.8 %
Geometry relaxation              ...        0.041 sec (=   0.001 min)   0.0 %
                             ****ORCA TERMINATED NORMALLY****
TOTAL RUN TIME: 0 days 0 hours 2 minutes 34 seconds 474 msec
