
                                 *****************
                                 * O   R   C   A *
                                 *****************

                                            #,                                       
                                            ###                                      
                                            ####                                     
                                            #####                                    
                                            ######                                   
                                           ########,                                 
                                     ,,################,,,,,                         
                               ,,#################################,,                 
                          ,,##########################################,,             
                       ,#########################################, ''#####,          
                    ,#############################################,,   '####,        
                  ,##################################################,,,,####,       
                ,###########''''           ''''###############################       
              ,#####''   ,,,,##########,,,,          '''####'''          '####       
            ,##' ,,,,###########################,,,                        '##       
           ' ,,###''''                  '''############,,,                           
         ,,##''                                '''############,,,,        ,,,,,,###''
      ,#''                                            '''#######################'''  
     '                                                          ''''####''''         
             ,#######,   #######,   ,#######,      ##                                
            ,#'     '#,  ##    ##  ,#'     '#,    #''#        ,####,   ,####,        
            ##       ##  ##   ,#'  ##            #'  '#       #'       #'  '#        
            ##       ##  #######   ##           ,######,      #####,   #    #        
            '#,     ,#'  ##    ##  '#,     ,#' ,#      #,     #,   #   #,  ,#        
             '#######'   ##     ##  '#######'  #'      '#     '####' # '####'        



                #########################################################
                #                        -***-                          #
                #          Department of theory and spectroscopy        #
                #                                                       #
                #                      Frank Neese                      #
                #                                                       #
                #     Directorship, Architecture, Infrastructure        #
                #                    SHARK, DRIVERS                     #
                #        Core code/Algorithms in most modules           #
                #                                                       #
                #        Max Planck Institute fuer Kohlenforschung      #
                #                Kaiser Wilhelm Platz 1                 #
                #                 D-45470 Muelheim/Ruhr                 #
                #                      Germany                          #
                #                                                       #
                #                  All rights reserved                  #
                #                        -***-                          #
                #########################################################


                         Program Version 6.0.1  -  RELEASE   -


 With contributions from (in alphabetic order):
[Max-Planck-Institut fuer Kohlenforschung]                               
  Daniel Aravena         : Magnetic Suceptibility                        
  Michael Atanasov       : Ab Initio Ligand Field Theory (pilot matlab implementation)
  Alexander A. Auer      : GIAO ZORA, VPT2 properties, NMR spectrum      
  Ute Becker             : All parallelization in ORCA, NUMFREQ, NUMCALC 
  Giovanni Bistoni       : ED, misc. LED, open-shell LED, HFLD           
  Martin Brehm           : Molecular dynamics                            
  Dmytro Bykov           : pre 5.0 version of the SCF Hessian            
  Marcos Casanova-Páez   : Triplet and SCS-CIS(D). UHF-(DLPNO)-IP/EA/STEOM-CCSD. UHF-CVS-IP/STEOM-CCSD   
  Vijay G. Chilkuri      : MRCI spin determinant printing, contributions to CSF-ICE 
  Pauline Colinet        : FMM embedding                                 
  Dipayan Datta          : RHF DLPNO-CCSD density                        
  Achintya Kumar Dutta   : EOM-CC, STEOM-CC                              
  Nicolas Foglia         : Exact transition moments, OPA infrastructure, MCD improvements    
  Dmitry Ganyushin       : Spin-Orbit,Spin-Spin,Magnetic field MRCI      
  Miquel Garcia-Rates    : C-PCM and meta-GGA Hessian, CCSD/C-PCM, Gaussian charge scheme 
  Tiago L. C. Gouveia    : GS-ROHF, GS-ROCIS                             
  Yang Guo               : DLPNO-NEVPT2, F12-NEVPT2, CIM, IAO-localization        
  Andreas Hansen         : Spin unrestricted coupled pair/coupled cluster methods 
  Ingolf Harden          : AUTO-CI MPn and infrastructure                
  Benjamin Helmich-Paris : MC-RPA, TRAH-(SCF,CASSCF), AVAS, COSX integrals, SCF dyn. polar. 
  Lee Huntington         : MR-EOM, pCC                                   
  Robert Izsak           : Overlap fitted RIJCOSX, COSX-SCS-MP3, EOM     
  Riya Kayal             : Wick's Theorem for AUTO-CI, AUTO-CI UHF-CCSDT 
  Emily Kempfer          : AUTO-CI, RHF CISDT and CCSDT                  
  Christian Kollmar      : KDIIS, OOCD, Brueckner-CCSD(T), CCSD density, CASPT2, CASPT2-K, improved NEVPT2 
  Axel Koslowski         : Symmetry handling                             
  Simone Kossmann        : meta-GGA functionals, TD-DFT gradient, OOMP2, (MP2 Hessian; deprecated post 5.0) 
  Lucas Lang             : DCDCAS                                        
  Marvin Lechner         : AUTO-CI (C++ implementation), FIC-MRCC        
  Spencer Leger          : CASSCF response                               
  Dagmar Lenk            : GEPOL surface, SMD, ORCA-2-JSON               
  Dimitrios Liakos       : Extrapolation schemes; Compound Job, initial MDCI parallelization 
  Dimitrios Manganas     : Further ROCIS development; embedding schemes. LFT, Crystal Embedding 
  Dimitrios Pantazis     : SARC Basis sets                               
  Anastasios Papadopoulos: AUTO-CI, single reference methods and gradients 
  Taras Petrenko         : pre 6.0 DFT Hessian and TD-DFT gradient, (ASA, deprecated), ECA, 1-Electron XAS/XES, NRVS 
  Peter Pinski           : DLPNO-MP2, DLPNO-MP2 Gradient                 
  Christoph Reimann      : Effective Core Potentials                     
  Marius Retegan         : Local ZFS, SOC                                
  Christoph Riplinger    : Optimizer, TS searches, QM/MM, DLPNO-CCSD(T), (RO)-DLPNO pert. Triples 
  Michael Roemelt        : Original ROCIS implementation                 
  Masaaki Saitow         : Open-shell DLPNO-CCSD energy and density      
  Barbara Sandhoefer     : DKH picture change effects                    
  Kantharuban Sivalingam : CASSCF convergence/infrastructure, NEVPT2 and variants, FIC-MRCI 
  Bernardo de Souza      : ESD, SOC TD-DFT                               
  Georgi L. Stoychev     : AutoAux, RI-MP2 NMR, DLPNO-MP2 response, X2C  
  Van Anh Tran           : RI-MP2 g-tensors                              
  Willem Van den Heuvel  : Paramagnetic NMR                              
  Zikuan Wang            : NOTCH, Electric field optimization            
  Frank Wennmohs         : Technical directorship and infrastructure     
  Hang Xu                : AUTO-CI-Response properties                   
                                                                         
[FACCTs GmbH]                                                            
  Markus Bursch, Miquel Garcia-Rates, Christoph Riplinger, Bernardo de Souza, Georgi L. Stoychev 
                                                                 
  APM, Basis sets (HGBS, AHGBS, def-TZVP (Ac-Lr), def2-XVPD (La-Lu)), CI-OPT, improved COSX, DLPNO-Multilevel,           
  DOCKER, DRACO, updates on ESD, GOAT, IRC, LR-CPCM, MBIS, meta-GGA TD-DFT gradient, ML-optimized integration grids, 
  MM, NACMEs, nearIR, NEB, NEB-TS, NL-DFT gradient (VV10), 2- and 3-layer-ONIOM, interface openCOSMO-RS, QMMM,   
  Crystal-QMMM, SF, symmetry and pop. for TD-DFT, r2SCAN hybrids, SOLVATOR                                   
                                                                         
[Other institutions]                                                     
  V. Asgeirsson          : NEB                                           
  Christoph Bannwarth    : sTDA-DFT, sTD-DFT, PBEh-3c, B97-3c, D3        
  Sebastian Ehlert       : rSCAN, r2SCAN, r2SCAN-3c, D4, dhf basis sets  
  Marvin Friede          : D4 for Fr, Ra, Ac-Lr                          
  Lars Goerigk           : TD-DFT with DH, B97 family of functionals     
  Stefan Grimme          : VdW corrections, initial TS optimization, DFT functionals, gCP, sTDA/sTD-DF 
  Waldemar Hujo          : DFT-NL                                        
  H. Jonsson             : NEB                                           
  Holger Kruse           : gCP                                           
  Marcel Mueller         : wB97X-3c, vDZP basis set                      
  Hagen Neugebauer       : wr2SCAN                                       
  Tobias Risthaus        : range-separated hybrid DFT                    
  Lukas Wittmann         : regularized MP2, r2SCAN double-hybrids, wr2SCAN        
                                                                         
We gratefully acknowledge several colleagues who have allowed us to      
interface, adapt or use parts of their codes:                            
  Ed Valeev, F. Pavosevic, A. Kumar             : LibInt (2-el integral package), F12 methods 
  Garnet Chan, S. Sharma, J. Yang, R. Olivares  : DMRG                   
  Ulf Ekstrom                                   : XCFun DFT Library      
  Mihaly Kallay                                 : mrcc  (arbitrary order and MRCC methods)
  Frank Weinhold                                : gennbo (NPA and NBO analysis)           
  Simon Mueller                                 : openCOSMO-RS                            
  Christopher J. Cramer and Donald G. Truhlar   : smd solvation model                     
  S Lehtola, MJT Oliveira, MAL Marques          : LibXC Library                           
  Liviu Ungur et al                             : ANISO software                          


 Your calculation uses the libint2 library for the computation of 2-el integrals
 For citations please refer to: http://libint.valeyev.net

 Your ORCA version has been built with support for libXC version: 6.2.2
 For citations please refer to: https://libxc.gitlab.io

 This ORCA versions uses:
   CBLAS   interface :  Fast vector & matrix operations
   LAPACKE interface :  Fast linear algebra routines
   SCALAPACK package :  Parallel linear algebra routines
   Shared memory     :  Shared parallel matrices
   BLAS/LAPACK       :  OpenBLAS 0.3.27  USE64BITINT DYNAMIC_ARCH NO_AFFINITY Zen SINGLE_THREADED
        Core in use  :  Zen
   Copyright (c) 2011-2014, The OpenBLAS Project


NOTE: MaxCore=6000 MB was set to SCF,MP2,MDCI,CIPSI,MRCI and CIS
      => If you want to overwrite this, your respective input block should be placed after the MaxCore statement
Your calculation utilizes the atom-pairwise dispersion correction
with the Becke-Johnson damping scheme (D3BJ)


Your calculation employs the composite approach B97-3c by Grimme and coworkers.
For the correct reference, please check the publication list of the Grimme group:
http://www.thch.uni-bonn.de/tc/index.php?section=publikationen&subsection=grimme#2017
   

XCFun DFT library Copyright 2009-2010 Ulf Ekstrom and contributors.
See http://admol.org/xcfun for more information.
This is free software; see the source code for copying conditions.
There is ABSOLUTELY NO WARRANTY; not even for MERCHANTABILITY or FITNESS FOR A PARTICULAR PURPOSE.
For details see the documentation.
Scientific users of this library should cite U. Ekstrom, L. Visscher, R. Bast, A. J. Thorvaldsen and K. Ruud;
J.Chem.Theor.Comp. 2010, DOI: 10.1021/ct100117s
XCFun Version 0.99 

================================================================================

----- Orbital basis set information -----
Your calculation utilizes the basis: def2-mTZVP
----- AuxJ basis set information -----
Your calculation utilizes the basis: def2-mTZVP/J
================================================================================
                                        WARNINGS
                       Please study these warnings very carefully!
================================================================================


WARNING: Geometry Optimization
  ===> : Switching off AutoStart
         For restart on a previous wavefunction, please use MOREAD

================================================================================
                                       INPUT FILE
================================================================================
NAME = m1_00_Vitamin_B6-QM3_003-B97-3C-TZ.inp
|  1> %pal nprocs 16 end
|  2> %MaxCore 6000
|  3> # put your comments here
|  4> ! B97-3C  OPT  FREQ DEFGRID3 NOTRAH
|  5> %scf MaxIter 800 end
|  6> %output
|  7> Print [P_Hirshfeld] 1
|  8> end
|  9> %geom
| 10> MaxIter 3000
| 11>  TolE 1e-6 #TolE 5e-6 Energy change (a.u.)
| 12>  TolRMSG 3e-5 #TolRMSG 1e-4 RMS gradient (a.u.)
| 13>  TolMaxG 1e-4 #TolMaxG 3e-3 Max. element of gradient (a.u.)
| 14>  TolRMSD 2e-3 #TolRMSD 2e-3 RMS displacement (a.u.)
| 15>  TolMaxD 4e-3 #TolMaxD 4e-3 Max. displacement (a.u.)
| 16> end
| 17> * xyz 0 1
| 18>  O      -2.09139628      -0.70743750       0.95818185
| 19>  O      -1.68786052       1.95956335       1.07973113
| 20>  O       1.77085189       2.57867546      -0.27403846
| 21>  N       1.05635657      -1.97264855      -0.21501889
| 22>  C      -0.33272192       0.42188246      -0.19304299
| 23>  C       0.94706428       0.35828355      -0.73889694
| 24>  C      -0.87861367      -0.72074655       0.37151373
| 25>  C      -0.15155584      -1.92030879       0.32975440
| 26>  C      -1.16487639       1.67203996      -0.20416531
| 27>  C       1.62215571       1.59065156      -1.27899990
| 28>  C       1.59893354      -0.86153634      -0.72398949
| 29>  C      -0.74889225      -3.16607603       0.91330806
| 30>  H      -0.58394524       2.50948405      -0.58177837
| 31>  H      -2.02944202       1.52905773      -0.86288994
| 32>  H       2.59339082       1.31204290      -1.70499457
| 33>  H       1.03094458       2.04300366      -2.08260001
| 34>  H       2.59843623      -0.96104159      -1.13940377
| 35>  H      -1.68187165      -3.41628370       0.40581149
| 36>  H      -0.04676672      -3.98948397       0.80826823
| 37>  H      -0.98501798      -3.01806112       1.96794340
| 38>  H      -2.29302670       0.21668736       1.16850763
| 39>  H      -0.96811594       2.27450230       1.63707172
| 40>  H       2.42596950       2.26774979       0.35972699
| 41> *
| 42> 
| 43> 
| 44> 
| 45> 
| 46>                          ****END OF INPUT****
================================================================================

                       *****************************
                       * Geometry Optimization Run *
                       *****************************

Geometry optimization settings:
Update method            Update   .... BFGS
Choice of coordinates    CoordSys .... (2022) Redundant Internals
Initial Hessian          InHess   .... Almloef's Model
Max. no of cycles        MaxIter  .... 3000

Convergence Tolerances:
Energy Change            TolE     ....  1.0000e-06 Eh
Max. Gradient            TolMAXG  ....  1.0000e-04 Eh/bohr
RMS Gradient             TolRMSG  ....  3.0000e-05 Eh/bohr
Max. Displacement        TolMAXD  ....  4.0000e-03 bohr
RMS Displacement         TolRMSD  ....  2.0000e-03 bohr
Strict Convergence                .... False

------------------------------------------------------------------------------
                        ORCA OPTIMIZATION COORDINATE SETUP
------------------------------------------------------------------------------

The optimization will be done in redundant internal coordinates (2022)
Making redundant internal coordinates   ...  (2022 redundants) done
Evaluating the initial hessian          ...  (Almloef) done
Evaluating the coordinates              ...  done
Calculating the B-matrix                .... done
Calculating the G-matrix                .... done
Diagonalizing the G-matrix              .... done
Small eigenvalue found = 2.834e-02
The first mode is                       ....   41
The number of degrees of freedom        ....   63

    -----------------------------------------------------------------
                    Redundant Internal Coordinates


    -----------------------------------------------------------------
         Definition                    Initial Value    Approx d2E/dq
    -----------------------------------------------------------------
      1. B(C   5,C   4)                  1.3928         0.618433   
      2. B(C   6,O   0)                  1.3473         0.654654   
      3. B(C   6,C   4)                  1.3865         0.632931   
      4. B(C   7,C   6)                  1.4033         0.594960   
      5. B(C   7,N   3)                  1.3261         0.707631   
      6. B(C   8,C   4)                  1.5018         0.414303   
      7. B(C   8,O   1)                  1.4158         0.508940   
      8. B(C   9,C   5)                  1.5054         0.408927   
      9. B(C   9,O   2)                  1.4171         0.506519   
     10. B(C  10,C   5)                  1.3832         0.640708   
     11. B(C  10,N   3)                  1.3372         0.679469   
     12. B(C  11,C   7)                  1.4998         0.417467   
     13. B(H  12,C   8)                  1.0869         0.364204   
     14. B(H  13,C   8)                  1.0963         0.351884   
     15. B(H  14,C   9)                  1.0965         0.351556   
     16. B(H  15,C   9)                  1.0954         0.353012   
     17. B(H  16,C  10)                  1.0870         0.364148   
     18. B(H  17,C  11)                  1.0911         0.358583   
     19. B(H  18,C  11)                  1.0872         0.363817   
     20. B(H  19,C  11)                  1.0908         0.358998   
     21. B(H  20,O   1)                  1.8471         0.019984   
     22. B(H  20,O   0)                  0.9690         0.503106   
     23. B(H  21,O   1)                  0.9632         0.513788   
     24. B(H  22,O   2)                  0.9631         0.514117   
     25. A(C   6,O   0,H  20)          106.9329         0.371484   
     26. A(C   8,O   1,H  21)          108.3657         0.357108   
     27. A(C   9,O   2,H  22)          108.2374         0.356858   
     28. A(C   7,N   3,C  10)          119.5492         0.446046   
     29. A(C   5,C   4,C   8)          122.9732         0.403795   
     30. A(C   6,C   4,C   8)          118.0910         0.405450   
     31. A(C   5,C   4,C   6)          118.9294         0.435484   
     32. A(C   4,C   5,C  10)          117.9760         0.436443   
     33. A(C   4,C   5,C   9)          121.0173         0.402866   
     34. A(C   9,C   5,C  10)          120.9629         0.405390   
     35. A(O   0,C   6,C   7)          119.1944         0.432248   
     36. A(C   4,C   6,C   7)          119.2327         0.432462   
     37. A(O   0,C   6,C   4)          121.5729         0.437088   
     38. A(N   3,C   7,C  11)          119.3305         0.411427   
     39. A(N   3,C   7,C   6)          121.1903         0.438347   
     40. A(C   6,C   7,C  11)          119.4791         0.401588   
     41. A(H  12,C   8,H  13)          108.2548         0.290303   
     42. A(C   4,C   8,H  13)          109.4423         0.328640   
     43. A(O   1,C   8,H  13)          106.2636         0.337997   
     44. A(C   4,C   8,H  12)          110.3519         0.330514   
     45. A(O   1,C   8,H  12)          110.8550         0.339944   
     46. A(O   1,C   8,C   4)          111.5309         0.387734   
     47. A(H  14,C   9,H  15)          107.3355         0.288844   
     48. A(C   5,C   9,H  15)          111.0526         0.328106   
     49. A(O   2,C   9,H  15)          106.7957         0.337909   
     50. A(C   5,C   9,H  14)          109.1831         0.327882   
     51. A(O   2,C   9,H  14)          111.0823         0.337676   
     52. A(O   2,C   9,C   5)          111.3080         0.386531   
     53. A(N   3,C  10,C   5)          123.0718         0.441003   
     54. A(C   5,C  10,H  16)          120.6630         0.355552   
     55. A(N   3,C  10,H  16)          116.2649         0.356897   
     56. A(H  17,C  11,H  18)          109.4868         0.291116   
     57. A(C   7,C  11,H  18)          109.5293         0.330872   
     58. A(C   7,C  11,H  17)          110.4907         0.330080   
     59. A(H  18,C  11,H  19)          109.6314         0.291169   
     60. A(H  17,C  11,H  19)          107.1994         0.290507   
     61. A(C   7,C  11,H  19)          110.4684         0.330143   
     62. D(C  10,C   5,C   4,C   6)      1.8197         0.026457   
     63. D(C   9,C   5,C   4,C   8)      5.1430         0.026457   
     64. D(C   9,C   5,C   4,C   6)   -175.7938         0.026457   
     65. D(C  10,C   5,C   4,C   8)   -177.2435         0.026457   
     66. D(O   0,C   6,C   4,C   5)    177.5199         0.027793   
     67. D(C   4,C   6,O   0,H  20)    -19.5265         0.031711   
     68. D(C   7,C   6,C   4,C   5)     -2.5531         0.027793   
     69. D(O   0,C   6,C   4,C   8)     -3.3709         0.027793   
     70. D(C   7,C   6,O   0,H  20)    160.5465         0.031711   
     71. D(C   7,C   6,C   4,C   8)    176.5561         0.027793   
     72. D(N   3,C   7,C   6,C   4)      1.3703         0.024381   
     73. D(N   3,C   7,C   6,O   0)   -178.7010         0.024381   
     74. D(C  11,C   7,N   3,C  10)   -179.3003         0.037578   
     75. D(C  11,C   7,C   6,O   0)      1.1968         0.024381   
     76. D(C   6,C   7,N   3,C  10)      0.5976         0.037578   
     77. D(C  11,C   7,C   6,C   4)   -178.7320         0.024381   
     78. D(H  13,C   8,C   4,C   5)    112.4460         0.012703   
     79. D(H  12,C   8,C   4,C   5)     -6.5822         0.012703   
     80. D(O   1,C   8,C   4,C   6)     50.6682         0.012703   
     81. D(O   1,C   8,C   4,C   5)   -130.2612         0.012703   
     82. D(H  12,C   8,O   1,H  21)    -50.6423         0.022247   
     83. D(H  12,C   8,C   4,C   6)    174.3472         0.012703   
     84. D(C   4,C   8,O   1,H  21)     72.7514         0.022247   
     85. D(H  13,C   8,O   1,H  21)   -168.0498         0.022247   
     86. D(H  14,C   9,C   5,C   4)   -177.1243         0.012387   
     87. D(O   2,C   9,C   5,C  10)   -117.6569         0.012387   
     88. D(O   2,C   9,C   5,C   4)     59.8852         0.012387   
     89. D(H  15,C   9,O   2,H  22)   -169.0784         0.020300   
     90. D(H  14,C   9,O   2,H  22)    -52.3390         0.020300   
     91. D(H  14,C   9,C   5,C  10)      5.3336         0.012387   
     92. D(C   5,C   9,O   2,H  22)     69.5562         0.020300   
     93. D(H  15,C   9,C   5,C   4)    -58.9624         0.012387   
     94. D(H  16,C  10,C   5,C   9)     -2.4618         0.028526   
     95. D(H  16,C  10,C   5,C   4)    179.9233         0.028526   
     96. D(N   3,C  10,C   5,C   9)    177.7618         0.028526   
     97. D(N   3,C  10,C   5,C   4)      0.1469         0.028526   
     98. D(H  16,C  10,N   3,C   7)    178.8365         0.034382   
     99. D(C   5,C  10,N   3,C   7)     -1.3780         0.034382   
    100. D(H  19,C  11,C   7,N   3)    121.6353         0.012892   
    101. D(H  18,C  11,C   7,C   6)   -179.1209         0.012892   
    102. D(H  18,C  11,C   7,N   3)      0.7787         0.012892   
    103. D(H  17,C  11,C   7,C   6)     60.1880         0.012892   
    104. D(H  17,C  11,C   7,N   3)   -119.9123         0.012892   
    -----------------------------------------------------------------

Number of atoms                         .... 23
Number of degrees of freedom            .... 104


         *************************************************************
         *                GEOMETRY OPTIMIZATION CYCLE   1            *
         *************************************************************
---------------------------------
CARTESIAN COORDINATES (ANGSTROEM)
---------------------------------
  O     -2.091396   -0.707438    0.958182
  O     -1.687861    1.959563    1.079731
  O      1.770852    2.578675   -0.274038
  N      1.056357   -1.972649   -0.215019
  C     -0.332722    0.421882   -0.193043
  C      0.947064    0.358284   -0.738897
  C     -0.878614   -0.720747    0.371514
  C     -0.151556   -1.920309    0.329754
  C     -1.164876    1.672040   -0.204165
  C      1.622156    1.590652   -1.279000
  C      1.598934   -0.861536   -0.723989
  C     -0.748892   -3.166076    0.913308
  H     -0.583945    2.509484   -0.581778
  H     -2.029442    1.529058   -0.862890
  H      2.593391    1.312043   -1.704995
  H      1.030945    2.043004   -2.082600
  H      2.598436   -0.961042   -1.139404
  H     -1.681872   -3.416284    0.405811
  H     -0.046767   -3.989484    0.808268
  H     -0.985018   -3.018061    1.967943
  H     -2.293027    0.216687    1.168508
  H     -0.968116    2.274502    1.637072
  H      2.425969    2.267750    0.359727

----------------------------
CARTESIAN COORDINATES (A.U.)
----------------------------
  NO LB      ZA    FRAG     MASS         X           Y           Z
   0 O     8.0000    0    15.999   -3.952166   -1.336863    1.810701
   1 O     8.0000    0    15.999   -3.189594    3.703038    2.040396
   2 O     8.0000    0    15.999    3.346425    4.872990   -0.517858
   3 N     7.0000    0    14.007    1.996225   -3.727766   -0.406327
   4 C     6.0000    0    12.011   -0.628753    0.797242   -0.364798
   5 C     6.0000    0    12.011    1.789692    0.677058   -1.396313
   6 C     6.0000    0    12.011   -1.660339   -1.362014    0.702059
   7 C     6.0000    0    12.011   -0.286399   -3.628858    0.623146
   8 C     6.0000    0    12.011   -2.201297    3.159698   -0.385817
   9 C     6.0000    0    12.011    3.065430    3.005896   -2.416960
  10 C     6.0000    0    12.011    3.021546   -1.628068   -1.368142
  11 C     6.0000    0    12.011   -1.415201   -5.983017    1.725902
  12 H     1.0000    0     1.008   -1.103497    4.742238   -1.099402
  13 H     1.0000    0     1.008   -3.835090    2.889500   -1.630626
  14 H     1.0000    0     1.008    4.900798    2.479402   -3.221973
  15 H     1.0000    0     1.008    1.948203    3.860717   -3.935544
  16 H     1.0000    0     1.008    4.910333   -1.816105   -2.153161
  17 H     1.0000    0     1.008   -3.178277   -6.455841    0.766873
  18 H     1.0000    0     1.008   -0.088376   -7.539032    1.527406
  19 H     1.0000    0     1.008   -1.861414   -5.703309    3.718874
  20 H     1.0000    0     1.008   -4.333192    0.409480    2.208159
  21 H     1.0000    0     1.008   -1.829474    4.298186    3.093617
  22 H     1.0000    0     1.008    4.584418    4.285426    0.679785

--------------------------------
INTERNAL COORDINATES (ANGSTROEM)
--------------------------------
 O      0   0   0     0.000000000000     0.00000000     0.00000000
 O      1   0   0     2.700094233720     0.00000000     0.00000000
 O      2   1   0     3.765459260521   106.46900483     0.00000000
 N      1   2   3     3.589638837273   103.40306871     3.86685891
 C      1   2   3     2.386130279094    56.22604037   345.19552193
 C      5   1   2     1.392786442278   147.64153822   152.60882451
 C      1   2   3     1.347292942516    83.96292002   356.56719905
 C      4   1   2     1.326110771469    18.75274874   162.43534103
 C      2   1   3     1.415829145297    79.26858838    43.38825854
 C      3   2   1     1.417127120905    92.51861958    38.60123653
 C      4   1   2     1.337165353743   100.79771843   341.79209051
 C      8   4   1     1.499760539909   119.33052015   181.42601812
 H      9   2   1     1.086915464974   110.85496143   193.81960900
 H      9   2   1     1.096282712097   106.26363137    76.41213910
 H     10   3   2     1.096536311844   111.08225429   196.08647462
 H     10   3   2     1.095411411024   106.79569957    79.34710928
 H     11   4   1     1.086957196086   116.26488184   178.59882835
 H     12   8   4     1.091149489077   110.49066298   240.08771041
 H     12   8   4     1.087204792769   109.52927992     0.77874377
 H     12   8   4     1.090834301958   110.46840222   121.63531317
 H      1   2   3     0.968967758427    22.97078828   176.09533289
 H      2   1   3     0.963248325162   117.43011949   298.14334831
 H      3   2   1     0.963074504289   109.58164683   288.22797603

---------------------------
INTERNAL COORDINATES (A.U.)
---------------------------
 O      0   0   0     0.000000000000     0.00000000     0.00000000
 O      1   0   0     5.102438637511     0.00000000     0.00000000
 O      2   1   0     7.115686770823   106.46900483     0.00000000
 N      1   2   3     6.783434322134   103.40306871     3.86685891
 C      1   2   3     4.509132747345    56.22604037   345.19552193
 C      5   1   2     2.631984938944   147.64153822   152.60882451
 C      1   2   3     2.546014683521    83.96292002   356.56719905
 C      4   1   2     2.505986181320    18.75274874   162.43534103
 C      2   1   3     2.675529337036    79.26858838    43.38825854
 C      3   2   1     2.677982155463    92.51861958    38.60123653
 C      4   1   2     2.526876314342   100.79771843   341.79209051
 C      8   4   1     2.834136686890   119.33052015   181.42601812
 H      9   2   1     2.053972559524   110.85496143   193.81960900
 H      9   2   1     2.071674091215   106.26363137    76.41213910
 H     10   3   2     2.072153325285   111.08225429   196.08647462
 H     10   3   2     2.070027570808   106.79569957    79.34710928
 H     11   4   1     2.054051419897   116.26488184   178.59882835
 H     12   8   4     2.061973705524   110.49066298   240.08771041
 H     12   8   4     2.054519309819   109.52927992     0.77874377
 H     12   8   4     2.061378088187   110.46840222   121.63531317
 H      1   2   3     1.831083696028    22.97078828   176.09533289
 H      2   1   3     1.820275533515   117.43011949   298.14334831
 H      3   2   1     1.819947059667   109.58164683   288.22797603

---------------------
BASIS SET INFORMATION
---------------------
There are 4 groups of distinct atoms

 Group   1 Type O   : 11s6p2d contracted to 5s3p2d pattern {62111/411/11}
 Group   2 Type N   : 11s6p1d contracted to 5s3p1d pattern {62111/411/1}
 Group   3 Type C   : 11s6p1d contracted to 5s3p1d pattern {62111/411/1}
 Group   4 Type H   : 5s contracted to 3s pattern {311}

Atom   0O    basis set group =>   1
Atom   1O    basis set group =>   1
Atom   2O    basis set group =>   1
Atom   3N    basis set group =>   2
Atom   4C    basis set group =>   3
Atom   5C    basis set group =>   3
Atom   6C    basis set group =>   3
Atom   7C    basis set group =>   3
Atom   8C    basis set group =>   3
Atom   9C    basis set group =>   3
Atom  10C    basis set group =>   3
Atom  11C    basis set group =>   3
Atom  12H    basis set group =>   4
Atom  13H    basis set group =>   4
Atom  14H    basis set group =>   4
Atom  15H    basis set group =>   4
Atom  16H    basis set group =>   4
Atom  17H    basis set group =>   4
Atom  18H    basis set group =>   4
Atom  19H    basis set group =>   4
Atom  20H    basis set group =>   4
Atom  21H    basis set group =>   4
Atom  22H    basis set group =>   4
---------------------------------
AUXILIARY/J BASIS SET INFORMATION
---------------------------------
There are 4 groups of distinct atoms

 Group   1 Type O   : 8s3p3d contracted to 6s3p3d pattern {311111/111/111}
 Group   2 Type N   : 8s3p3d contracted to 6s3p3d pattern {311111/111/111}
 Group   3 Type C   : 8s3p3d contracted to 6s3p3d pattern {311111/111/111}
 Group   4 Type H   : 5s2p contracted to 3s1p pattern {311/2}

Atom   0O    basis set group =>   1
Atom   1O    basis set group =>   1
Atom   2O    basis set group =>   1
Atom   3N    basis set group =>   2
Atom   4C    basis set group =>   3
Atom   5C    basis set group =>   3
Atom   6C    basis set group =>   3
Atom   7C    basis set group =>   3
Atom   8C    basis set group =>   3
Atom   9C    basis set group =>   3
Atom  10C    basis set group =>   3
Atom  11C    basis set group =>   3
Atom  12H    basis set group =>   4
Atom  13H    basis set group =>   4
Atom  14H    basis set group =>   4
Atom  15H    basis set group =>   4
Atom  16H    basis set group =>   4
Atom  17H    basis set group =>   4
Atom  18H    basis set group =>   4
Atom  19H    basis set group =>   4
Atom  20H    basis set group =>   4
Atom  21H    basis set group =>   4
Atom  22H    basis set group =>   4


           ************************************************************
           *        Program running with 16 parallel MPI-processes    *
           *              working on a common directory               *
           ************************************************************
------------------------------------------------------------------------------
                             ORCA STARTUP CALCULATIONS
                           -- RI-GTO INTEGRALS CHOSEN --
------------------------------------------------------------------------------
------------------------------------------------------------------------------
                   ___                                                        
                  /   \      - P O W E R E D   B Y -                         
                 /     \                                                     
                 |  |  |   _    _      __       _____    __    __             
                 |  |  |  | |  | |    /  \     |  _  \  |  |  /  |          
                  \  \/   | |  | |   /    \    | | | |  |  | /  /          
                 / \  \   | |__| |  /  /\  \   | |_| |  |  |/  /          
                |  |  |   |  __  | /  /__\  \  |    /   |      \           
                |  |  |   | |  | | |   __   |  |    \   |  |\   \          
                \     /   | |  | | |  |  |  |  | |\  \  |  | \   \       
                 \___/    |_|  |_| |__|  |__|  |_| \__\ |__|  \__/        
                                                                              
                      - O R C A' S   B I G   F R I E N D -                    
                                      &                                       
                       - I N T E G R A L  F E E D E R -                       
                                                                              
 v1 FN, 2020, v2 2021, v3 2022-2024                                           
------------------------------------------------------------------------------


----------------------
SHARK INTEGRAL PACKAGE
----------------------

Number of atoms                             ...     23
Number of basis functions                   ...    276
Number of shells                            ...    144
Maximum angular momentum                    ...      2
Integral batch strategy                     ... SHARK/LIBINT Hybrid
RI-J (if used) integral strategy            ... SPLIT-RIJ (Revised 2003 algorithm where possible)
Printlevel                                  ...      1
Contraction scheme used                     ... SEGMENTED contraction
Prescreening option                         ... SCHWARTZ
   Thresh                                   ... 2.500e-11
   Tcut                                     ... 2.500e-12
   Tpresel                                  ... 2.500e-12 
Coulomb Range Separation                    ... NOT USED
Exchange Range Separation                   ... NOT USED
Multipole approximations                    ... NOT USED
Finite Nucleus Model                        ... NOT USED
CABS basis                                  ... NOT available
Auxiliary Coulomb fitting basis             ... AVAILABLE
   # of basis functions in Aux-J            ...    426
   # of shells in Aux-J                     ...    188
   Maximum angular momentum in Aux-J        ...      2
Auxiliary J/K fitting basis                 ... NOT available
Auxiliary Correlation fitting basis         ... NOT available
Auxiliary 'external' fitting basis          ... NOT available

Checking pre-screening integrals            ... done (  0.0 sec) Dimension = 144
Check shell pair data                       ... done (  0.0 sec)
Shell pair information
Shell pair cut-off parameter TPreSel        ...   2.5e-12
Total number of shell pairs                 ...     10440
Shell pairs after pre-screening             ...      9089
Total number of primitive shell pairs       ...     37972
Primitive shell pairs kept                  ...     22559
          la=0 lb=0:   3572 shell pairs
          la=1 lb=0:   3048 shell pairs
          la=1 lb=1:    643 shell pairs
          la=2 lb=0:   1200 shell pairs
          la=2 lb=1:    514 shell pairs
          la=2 lb=2:    112 shell pairs

Calculating one electron integrals          ... done (  0.0 sec)
Calculating RI/J V-Matrix + Cholesky decomp.... done (  0.0 sec)
Calculating Nuclear repulsion               ... done (  0.0 sec) ENN=    729.882341127567 Eh

Diagonalization of the overlap matrix:
Smallest eigenvalue                        ... 2.860e-05
Time for diagonalization                   ...    0.005 sec
Threshold for overlap eigenvalues          ... 1.000e-07
Number of eigenvalues below threshold      ... 0
Time for construction of square roots      ...    0.003 sec
Total time needed                          ...    0.009 sec

-------------------
DFT GRID GENERATION
-------------------

General Integration Accuracy     IntAcc      ... 4.959
Radial Grid Type                 RadialGrid  ... OptM3 with GC (2021)
Angular Grid (max. ang.)         AngularGrid ... 6 (Lebedev-590)
Angular grid pruning method      GridPruning ... 4 (adaptive)
Weight generation scheme         WeightScheme... mBecke (2022)
Basis function cutoff            BFCut       ... 1.0000e-11
Integration weight cutoff        WCut        ... 1.0000e-14
Partially contracted basis set               ... off
Rotationally invariant grid construction     ... off
Angular grids for H and He will be reduced by one unit
Diffuse basis detected: some atoms will have their outermost
                        angular grid increased by 1.

Total number of grid points                  ...   267721
Total number of batches                      ...     4195
Average number of points per batch           ...       63
Average number of grid points per atom       ...    11640
Initializing property integral containers    ... done (  0.0 sec)

SHARK setup successfully completed in   2.1 seconds

Maximum memory used throughout the entire STARTUP-calculation: 57.9 MB


           ************************************************************
           *        Program running with 16 parallel MPI-processes    *
           *              working on a common directory               *
           ************************************************************
-------------------------------------------------------------------------------
                                 ORCA GUESS
                   Start orbitals & Density for SCF / CASSCF
-------------------------------------------------------------------------------

------------
SCF SETTINGS
------------
Hamiltonian:
 Density Functional     Method          .... DFT(GTOs)
 Exchange Functional    Exchange        .... B973C
 Correlation Functional Correlation     .... B973C
 Gradients option       PostSCFGGA      .... off
 RI-approximation to the Coulomb term is turned on
   Number of AuxJ basis functions       .... 426


General Settings:
 Integral files         IntName         .... m1_00_Vitamin_B6-QM3_003-B97-3C-TZ
 Hartree-Fock type      HFTyp           .... RHF
 Total Charge           Charge          ....    0
 Multiplicity           Mult            ....    1
 Number of Electrons    NEL             ....   90
 Basis Dimension        Dim             ....  276
 Nuclear Repulsion      ENuc            ....    729.8823411276 Eh

Convergence Acceleration:
 AO-DIIS                CNVDIIS         .... on
   Start iteration      DIISMaxIt       ....    12
   Startup error        DIISStart       ....  0.200000
   # of expansion vecs  DIISMaxEq       ....     5
   Bias factor          DIISBfac        ....   1.050
   Max. coefficient     DIISMaxC        ....  10.000
 MO-DIIS                CNVKDIIS        .... off
 Trust-Rad. Augm. Hess. CNVTRAH         .... off
 SOSCF                  CNVSOSCF        .... on
   Start iteration      SOSCFMaxIt      ....   150
   Startup grad/error   SOSCFStart      ....  0.003300
   Hessian update       SOSCFHessUp     .... L-BFGS
 Level Shifting         CNVShift        .... on
   Level shift para.    LevelShift      ....    0.2500
   Turn off err/grad.   ShiftErr        ....    0.0010
 Zerner damping         CNVZerner       .... off
 Static damping         CNVDamp         .... on
   Fraction old density DampFac         ....    0.7000
   Max. Damping (<1)    DampMax         ....    0.9800
   Min. Damping (>=0)   DampMin         ....    0.0000
   Turn off err/grad.   DampErr         ....    0.1000

SCF Procedure:
 Maximum # iterations   MaxIter         ....   800
 SCF integral mode      SCFMode         .... Direct
   Integral package                     .... SHARK and LIBINT hybrid scheme
 Reset frequency        DirectResetFreq ....    20
 Integral Threshold     Thresh          ....  2.500e-11 Eh
 Primitive CutOff       TCut            ....  2.500e-12 Eh

Convergence Tolerance:
 Convergence Check Mode ConvCheckMode   .... Total+1el-Energy
 Convergence forced     ConvForced      .... 0
 Energy Change          TolE            ....  1.000e-08 Eh
 1-El. energy change                    ....  1.000e-05 Eh
 Orbital Gradient       TolG            ....  1.000e-05
 Orbital Rotation angle TolX            ....  1.000e-05
 DIIS Error             TolErr          ....  5.000e-07

--------------------------------
INITIAL GUESS: MINIMAL BASIS EHT
--------------------------------
The minimal basis has 71 functions
EHT matrix was diagonalized
Basis set overlap was calculated now projecting the orbitals
Using GuessMode=FMatrix for the initial guess
C*T matrix was formed
Effective Fockian was calculated
Effective Fockian was diagonalized
Initial density was built
                      ------------------
                      INITIAL GUESS DONE
                      ------------------
             **** ENERGY FILE WAS UPDATED (m1_00_Vitamin_B6-QM3_003-B97-3C-TZ.en.tmp) ****
Finished Guess after   0.1 sec
Maximum memory used throughout the entire GUESS-calculation: 16.1 MB


           ************************************************************
           *        Program running with 16 parallel MPI-processes    *
           *              working on a common directory               *
           ************************************************************

-------------------------------------------------------------------------------------------
                                      ORCA LEAN-SCF
                              memory conserving SCF solver
-------------------------------------------------------------------------------------------

----------------------------------------D-I-I-S--------------------------------------------
Iteration    Energy (Eh)           Delta-E    RMSDP     MaxDP     DIISErr   Damp  Time(sec)
-------------------------------------------------------------------------------------------
               ***  Starting incremental Fock matrix formation  ***
    1    -589.6115228347946413     0.00e+00  7.62e-03  1.80e-01  4.65e-01  0.700   0.3
Warning: op=0 Small HOMO/LUMO gap (   0.085) - skipping pre-diagonalization
         Will do a full diagonalization
    2    -590.2888481098184457    -6.77e-01  6.85e-03  3.80e-01  3.28e-01  0.700   0.3
    3    -590.6533382411471393    -3.64e-01  3.52e-03  8.29e-02  2.30e-01  0.700   0.3
                               ***Turning on AO-DIIS***
    4    -590.9042986223362277    -2.51e-01  2.63e-03  1.28e-01  1.60e-01  0.700   0.3
    5    -591.0810194140442491    -1.77e-01  1.87e-03  9.52e-02  1.11e-01  0.700   0.3
    6    -591.2058764438143044    -1.25e-01  1.23e-03  4.60e-02  7.81e-02  0.700   0.3
    7    -591.2947347529659510    -8.89e-02  2.82e-03  6.15e-02  5.49e-02  0.000   0.3
    8    -591.4998311868728251    -2.05e-01  5.10e-04  2.83e-02  1.96e-02  0.000   0.3
                              *** Initializing SOSCF ***
---------------------------------------S-O-S-C-F--------------------------------------
Iteration    Energy (Eh)           Delta-E    RMSDP     MaxDP     MaxGrad    Time(sec)
--------------------------------------------------------------------------------------
    9    -591.5017569849667325    -1.93e-03  7.68e-05  3.42e-03  2.66e-03     0.3
               *** Restarting incremental Fock matrix formation ***
   10    -591.5017859143074475    -2.89e-05  7.95e-05  3.90e-03  2.09e-04     0.3
   11    -591.5017680494077013     1.79e-05  5.85e-05  2.07e-03  5.72e-04     0.3
   12    -591.5017924976391441    -2.44e-05  2.95e-05  1.03e-03  1.25e-04     0.3
   13    -591.5017901904088831     2.31e-06  2.20e-05  1.22e-03  3.39e-04     0.3
   14    -591.5017930869078100    -2.90e-06  1.13e-05  7.77e-04  3.54e-05     0.3
   15    -591.5017929837631527     1.03e-07  5.36e-06  3.21e-04  4.13e-05     0.3
   16    -591.5017931421343746    -1.58e-07  5.50e-06  2.00e-04  2.94e-06     0.3
   17    -591.5017931256716111     1.65e-08  2.74e-06  1.91e-04  5.19e-06     0.3
   18    -591.5017931363520347    -1.07e-08  6.11e-06  3.56e-04  1.33e-06     0.3
                  *** Gradient check signals convergence ***

               *****************************************************
               *                     SUCCESS                       *
               *           SCF CONVERGED AFTER  18 CYCLES          *
               *****************************************************

             **** ENERGY FILE WAS UPDATED (m1_00_Vitamin_B6-QM3_003-B97-3C-TZ.en.tmp) ****

----------------
TOTAL SCF ENERGY
----------------

Total Energy       :       -591.50179313635203 Eh          -16095.58207 eV

Components:
Nuclear Repulsion  :        729.88234112756709 Eh           19861.10822 eV
Electronic Energy  :      -1321.38413426391912 Eh          -35956.69030 eV
One Electron Energy:      -2254.51967685460340 Eh          -61348.59931 eV
Two Electron Energy:        933.13554259068428 Eh           25391.90901 eV

Virial components:
Potential Energy   :      -1180.96715728360732 Eh          -32135.75010 eV
Kinetic Energy     :        589.46536414725540 Eh           16040.16802 eV
Virial Ratio       :          2.00345470508185

DFT components:
N(Alpha)           :       44.999998157248 electrons
N(Beta)            :       44.999998157248 electrons
N(Total)           :       89.999996314496 electrons
E(XC)              :      -79.836926398844 Eh       

---------------
SCF CONVERGENCE
---------------

  Last Energy change         ...    1.0680e-08  Tolerance :   1.0000e-08
  Last MAX-Density change    ...    3.5582e-04  Tolerance :   1.0000e-07
  Last RMS-Density change    ...    6.1086e-06  Tolerance :   5.0000e-09
  Last DIIS Error            ...    2.6553e-03  Tolerance :   5.0000e-07
  Last Orbital Gradient      ...    1.3328e-06  Tolerance :   1.0000e-05
  Last Orbital Rotation      ...    7.9321e-06  Tolerance :   1.0000e-05


----------------
ORBITAL ENERGIES
----------------

  NO   OCC          E(Eh)            E(eV) 
   0   2.0000     -18.776871      -510.9446 
   1   2.0000     -18.771719      -510.8044 
   2   2.0000     -18.761606      -510.5293 
   3   2.0000     -13.977020      -380.3340 
   4   2.0000      -9.955991      -270.9163 
   5   2.0000      -9.953934      -270.8603 
   6   2.0000      -9.952651      -270.8254 
   7   2.0000      -9.925373      -270.0831 
   8   2.0000      -9.916104      -269.8309 
   9   2.0000      -9.907982      -269.6099 
  10   2.0000      -9.904980      -269.5282 
  11   2.0000      -9.878122      -268.7974 
  12   2.0000      -0.993284       -27.0286 
  13   2.0000      -0.970238       -26.4015 
  14   2.0000      -0.961060       -26.1518 
  15   2.0000      -0.866058       -23.5666 
  16   2.0000      -0.755512       -20.5585 
  17   2.0000      -0.712941       -19.4001 
  18   2.0000      -0.670585       -18.2475 
  19   2.0000      -0.643858       -17.5203 
  20   2.0000      -0.609363       -16.5816 
  21   2.0000      -0.574551       -15.6343 
  22   2.0000      -0.538362       -14.6496 
  23   2.0000      -0.520792       -14.1715 
  24   2.0000      -0.487647       -13.2695 
  25   2.0000      -0.465286       -12.6611 
  26   2.0000      -0.446721       -12.1559 
  27   2.0000      -0.435387       -11.8475 
  28   2.0000      -0.421186       -11.4610 
  29   2.0000      -0.408411       -11.1134 
  30   2.0000      -0.398699       -10.8492 
  31   2.0000      -0.389130       -10.5888 
  32   2.0000      -0.380114       -10.3434 
  33   2.0000      -0.357775        -9.7355 
  34   2.0000      -0.342304        -9.3146 
  35   2.0000      -0.336008        -9.1432 
  36   2.0000      -0.328370        -8.9354 
  37   2.0000      -0.318098        -8.6559 
  38   2.0000      -0.310246        -8.4422 
  39   2.0000      -0.303945        -8.2708 
  40   2.0000      -0.266785        -7.2596 
  41   2.0000      -0.252999        -6.8844 
  42   2.0000      -0.237052        -6.4505 
  43   2.0000      -0.208444        -5.6720 
  44   2.0000      -0.201751        -5.4899 
  45   0.0000      -0.057938        -1.5766 
  46   0.0000      -0.032880        -0.8947 
  47   0.0000      -0.002690        -0.0732 
  48   0.0000       0.023185         0.6309 
  49   0.0000       0.040211         1.0942 
  50   0.0000       0.054034         1.4703 
  51   0.0000       0.060694         1.6516 
  52   0.0000       0.066966         1.8222 
  53   0.0000       0.084572         2.3013 
  54   0.0000       0.094617         2.5747 
  55   0.0000       0.096578         2.6280 
*Only the first 10 virtual orbitals were printed.

                    ********************************
                    * MULLIKEN POPULATION ANALYSIS *
                    ********************************

-----------------------
MULLIKEN ATOMIC CHARGES
-----------------------
   0 O :   -0.551031
   1 O :   -0.620897
   2 O :   -0.561454
   3 N :   -0.044286
   4 C :   -0.006873
   5 C :    0.140472
   6 C :    0.467538
   7 C :   -0.055254
   8 C :   -0.305773
   9 C :   -0.444133
  10 C :   -0.216905
  11 C :   -0.558194
  12 H :    0.222761
  13 H :    0.179644
  14 H :    0.177625
  15 H :    0.198278
  16 H :    0.142638
  17 H :    0.171229
  18 H :    0.192284
  19 H :    0.171863
  20 H :    0.428330
  21 H :    0.439288
  22 H :    0.432847
Sum of atomic charges:   -0.0000000

--------------------------------
MULLIKEN REDUCED ORBITAL CHARGES
--------------------------------
  0 O s       :     3.786927  s :     3.786927
      pz      :     1.708756  p :     4.719632
      px      :     1.447104
      py      :     1.563771
      dz2     :     0.005411  d :     0.044472
      dxz     :     0.007016
      dyz     :     0.006206
      dx2y2   :     0.015871
      dxy     :     0.009968

  1 O s       :     3.816897  s :     3.816897
      pz      :     1.288630  p :     4.757514
      px      :     1.607767
      py      :     1.861117
      dz2     :     0.003751  d :     0.046487
      dxz     :     0.019851
      dyz     :     0.001013
      dx2y2   :     0.013609
      dxy     :     0.008263

  2 O s       :     3.812328  s :     3.812328
      pz      :     1.399639  p :     4.713198
      px      :     1.694046
      py      :     1.619514
      dz2     :     0.003807  d :     0.035927
      dxz     :     0.009069
      dyz     :     0.008680
      dx2y2   :     0.009241
      dxy     :     0.005131

  3 N s       :     3.443597  s :     3.443597
      pz      :     1.092808  p :     3.554487
      px      :     1.119489
      py      :     1.342190
      dz2     :     0.006397  d :     0.046202
      dxz     :     0.007643
      dyz     :     0.008163
      dx2y2   :     0.014314
      dxy     :     0.009685

  4 C s       :     3.211994  s :     3.211994
      pz      :     0.891440  p :     2.748339
      px      :     0.992150
      py      :     0.864748
      dz2     :     0.005512  d :     0.046540
      dxz     :     0.006785
      dyz     :     0.006771
      dx2y2   :     0.013104
      dxy     :     0.014367

  5 C s       :     3.069843  s :     3.069843
      pz      :     0.965495  p :     2.741931
      px      :     0.946958
      py      :     0.829478
      dz2     :     0.004576  d :     0.047754
      dxz     :     0.007328
      dyz     :     0.007327
      dx2y2   :     0.014523
      dxy     :     0.014001

  6 C s       :     2.994198  s :     2.994198
      pz      :     0.865491  p :     2.464617
      px      :     0.745066
      py      :     0.854060
      dz2     :     0.011122  d :     0.073646
      dxz     :     0.014226
      dyz     :     0.009025
      dx2y2   :     0.019560
      dxy     :     0.019712

  7 C s       :     3.191571  s :     3.191571
      pz      :     0.941165  p :     2.799948
      px      :     0.900950
      py      :     0.957833
      dz2     :     0.006978  d :     0.063735
      dxz     :     0.009838
      dyz     :     0.008928
      dx2y2   :     0.015904
      dxy     :     0.022088

  8 C s       :     3.315988  s :     3.315988
      pz      :     0.803044  p :     2.924205
      px      :     1.067482
      py      :     1.053678
      dz2     :     0.013874  d :     0.065580
      dxz     :     0.017122
      dyz     :     0.013317
      dx2y2   :     0.007343
      dxy     :     0.013924

  9 C s       :     3.387448  s :     3.387448
      pz      :     0.900297  p :     2.990484
      px      :     1.167644
      py      :     0.922543
      dz2     :     0.010768  d :     0.066202
      dxz     :     0.013536
      dyz     :     0.017528
      dx2y2   :     0.011503
      dxy     :     0.012866

 10 C s       :     3.209549  s :     3.209549
      pz      :     1.001213  p :     2.949820
      px      :     0.988004
      py      :     0.960602
      dz2     :     0.004844  d :     0.057536
      dxz     :     0.006930
      dyz     :     0.010315
      dx2y2   :     0.020481
      dxy     :     0.014966

 11 C s       :     3.270109  s :     3.270109
      pz      :     1.092171  p :     3.251403
      px      :     1.129577
      py      :     1.029656
      dz2     :     0.010045  d :     0.036681
      dxz     :     0.005827
      dyz     :     0.004621
      dx2y2   :     0.006019
      dxy     :     0.010169

 12 H s       :     0.777239  s :     0.777239

 13 H s       :     0.820356  s :     0.820356

 14 H s       :     0.822375  s :     0.822375

 15 H s       :     0.801722  s :     0.801722

 16 H s       :     0.857362  s :     0.857362

 17 H s       :     0.828771  s :     0.828771

 18 H s       :     0.807716  s :     0.807716

 19 H s       :     0.828137  s :     0.828137

 20 H s       :     0.571670  s :     0.571670

 21 H s       :     0.560712  s :     0.560712

 22 H s       :     0.567153  s :     0.567153



                     *******************************
                     * LOEWDIN POPULATION ANALYSIS *
                     *******************************

----------------------
LOEWDIN ATOMIC CHARGES
----------------------
   0 O :   -0.625109
   1 O :   -0.724239
   2 O :   -0.750511
   3 N :   -0.166123
   4 C :   -0.008766
   5 C :   -0.063097
   6 C :    0.197334
   7 C :    0.030041
   8 C :    0.040421
   9 C :    0.021686
  10 C :   -0.094555
  11 C :   -0.397052
  12 H :    0.201775
  13 H :    0.192915
  14 H :    0.173746
  15 H :    0.185079
  16 H :    0.156772
  17 H :    0.172977
  18 H :    0.167592
  19 H :    0.173345
  20 H :    0.385731
  21 H :    0.368929
  22 H :    0.361110

-------------------------------
LOEWDIN REDUCED ORBITAL CHARGES
-------------------------------
  0 O s       :     3.507095  s :     3.507095
      pz      :     1.719734  p :     4.776642
      px      :     1.516333
      py      :     1.540575
      dz2     :     0.057051  d :     0.341372
      dxz     :     0.071639
      dyz     :     0.034823
      dx2y2   :     0.100418
      dxy     :     0.077441

  1 O s       :     3.545314  s :     3.545314
      pz      :     1.403827  p :     4.831577
      px      :     1.624580
      py      :     1.803170
      dz2     :     0.094325  d :     0.347348
      dxz     :     0.104438
      dyz     :     0.071727
      dx2y2   :     0.035311
      dxy     :     0.041548

  2 O s       :     3.561506  s :     3.561506
      pz      :     1.493797  p :     4.855961
      px      :     1.699632
      py      :     1.662532
      dz2     :     0.073854  d :     0.333045
      dxz     :     0.074858
      dyz     :     0.076268
      dx2y2   :     0.059151
      dxy     :     0.048913

  3 N s       :     3.216203  s :     3.216203
      pz      :     1.138630  p :     3.863674
      px      :     1.267516
      py      :     1.457529
      dz2     :     0.011966  d :     0.086246
      dxz     :     0.015794
      dyz     :     0.013234
      dx2y2   :     0.026283
      dxy     :     0.018969

  4 C s       :     2.832974  s :     2.832974
      pz      :     0.999362  p :     3.080118
      px      :     1.046925
      py      :     1.033831
      dz2     :     0.010447  d :     0.095675
      dxz     :     0.013674
      dyz     :     0.013261
      dx2y2   :     0.027838
      dxy     :     0.030455

  5 C s       :     2.852669  s :     2.852669
      pz      :     0.994654  p :     3.111114
      px      :     1.059313
      py      :     1.057147
      dz2     :     0.009092  d :     0.099314
      dxz     :     0.014712
      dyz     :     0.014253
      dx2y2   :     0.030746
      dxy     :     0.030511

  6 C s       :     2.773531  s :     2.773531
      pz      :     0.919907  p :     2.865872
      px      :     0.894819
      py      :     1.051146
      dz2     :     0.022181  d :     0.163263
      dxz     :     0.032853
      dyz     :     0.018691
      dx2y2   :     0.044549
      dxy     :     0.044989

  7 C s       :     2.830871  s :     2.830871
      pz      :     0.954165  p :     3.005174
      px      :     1.000574
      py      :     1.050436
      dz2     :     0.012977  d :     0.133914
      dxz     :     0.020061
      dyz     :     0.017893
      dx2y2   :     0.034871
      dxy     :     0.048111

  8 C s       :     2.851172  s :     2.851172
      pz      :     0.886249  p :     2.979087
      px      :     1.049300
      py      :     1.043537
      dz2     :     0.030583  d :     0.129321
      dxz     :     0.035415
      dyz     :     0.025438
      dx2y2   :     0.011783
      dxy     :     0.026102

  9 C s       :     2.858379  s :     2.858379
      pz      :     0.956657  p :     2.989704
      px      :     1.073502
      py      :     0.959545
      dz2     :     0.020615  d :     0.130230
      dxz     :     0.024033
      dyz     :     0.038748
      dx2y2   :     0.022375
      dxy     :     0.024460

 10 C s       :     2.881643  s :     2.881643
      pz      :     1.001551  p :     3.095485
      px      :     1.058679
      py      :     1.035255
      dz2     :     0.009324  d :     0.117427
      dxz     :     0.011337
      dyz     :     0.021245
      dx2y2   :     0.043943
      dxy     :     0.031578

 11 C s       :     2.976606  s :     2.976606
      pz      :     1.134411  p :     3.360594
      px      :     1.139733
      py      :     1.086450
      dz2     :     0.015942  d :     0.059851
      dxz     :     0.008684
      dyz     :     0.008039
      dx2y2   :     0.010105
      dxy     :     0.017082

 12 H s       :     0.798225  s :     0.798225

 13 H s       :     0.807085  s :     0.807085

 14 H s       :     0.826254  s :     0.826254

 15 H s       :     0.814921  s :     0.814921

 16 H s       :     0.843228  s :     0.843228

 17 H s       :     0.827023  s :     0.827023

 18 H s       :     0.832408  s :     0.832408

 19 H s       :     0.826655  s :     0.826655

 20 H s       :     0.614269  s :     0.614269

 21 H s       :     0.631071  s :     0.631071

 22 H s       :     0.638890  s :     0.638890



                      *****************************
                      * MAYER POPULATION ANALYSIS *
                      *****************************

  NA   - Mulliken gross atomic population
  ZA   - Total nuclear charge
  QA   - Mulliken gross atomic charge
  VA   - Mayer's total valence
  BVA  - Mayer's bonded valence
  FA   - Mayer's free valence

  ATOM       NA         ZA         QA         VA         BVA        FA
  0 O      8.5510     8.0000    -0.5510     1.9429     1.9429    -0.0000
  1 O      8.6209     8.0000    -0.6209     1.8205     1.8205    -0.0000
  2 O      8.5615     8.0000    -0.5615     1.7211     1.7211     0.0000
  3 N      7.0443     7.0000    -0.0443     3.2188     3.2188    -0.0000
  4 C      6.0069     6.0000    -0.0069     3.4763     3.4763     0.0000
  5 C      5.8595     6.0000     0.1405     3.3122     3.3122     0.0000
  6 C      5.5325     6.0000     0.4675     3.5626     3.5626    -0.0000
  7 C      6.0553     6.0000    -0.0553     3.8561     3.8561    -0.0000
  8 C      6.3058     6.0000    -0.3058     3.7033     3.7033     0.0000
  9 C      6.4441     6.0000    -0.4441     3.8408     3.8408    -0.0000
 10 C      6.2169     6.0000    -0.2169     4.0065     4.0065    -0.0000
 11 C      6.5582     6.0000    -0.5582     3.7263     3.7263    -0.0000
 12 H      0.7772     1.0000     0.2228     0.9370     0.9370     0.0000
 13 H      0.8204     1.0000     0.1796     0.9356     0.9356    -0.0000
 14 H      0.8224     1.0000     0.1776     0.9379     0.9379    -0.0000
 15 H      0.8017     1.0000     0.1983     0.9176     0.9176     0.0000
 16 H      0.8574     1.0000     0.1426     0.9533     0.9533    -0.0000
 17 H      0.8288     1.0000     0.1712     0.9514     0.9514    -0.0000
 18 H      0.8077     1.0000     0.1923     0.9599     0.9599    -0.0000
 19 H      0.8281     1.0000     0.1719     0.9508     0.9508    -0.0000
 20 H      0.5717     1.0000     0.4283     0.8314     0.8314    -0.0000
 21 H      0.5607     1.0000     0.4393     0.7875     0.7875     0.0000
 22 H      0.5672     1.0000     0.4328     0.7886     0.7886     0.0000

  Mayer bond orders larger than 0.100000
B(  0-O ,  6-C ) :   1.1002 B(  0-O , 20-H ) :   0.6754 B(  1-O ,  8-C ) :   0.9930 
B(  1-O , 20-H ) :   0.1545 B(  1-O , 21-H ) :   0.7582 B(  2-O ,  9-C ) :   0.9903 
B(  2-O , 22-H ) :   0.7669 B(  3-N ,  7-C ) :   1.6621 B(  3-N , 10-C ) :   1.5165 
B(  4-C ,  5-C ) :   1.2996 B(  4-C ,  6-C ) :   1.3311 B(  4-C ,  8-C ) :   0.8835 
B(  5-C ,  9-C ) :   0.8057 B(  5-C , 10-C ) :   1.3619 B(  6-C ,  7-C ) :   1.3240 
B(  6-C ,  8-C ) :  -0.1075 B(  7-C , 11-C ) :   0.8750 B(  8-C , 12-H ) :   0.9437 
B(  8-C , 13-H ) :   0.9435 B(  9-C , 14-H ) :   0.9693 B(  9-C , 15-H ) :   0.9677 
B( 10-C , 16-H ) :   0.9560 B( 11-C , 17-H ) :   0.9495 B( 11-C , 18-H ) :   0.9731 
B( 11-C , 19-H ) :   0.9516 


------------------
HIRSHFELD ANALYSIS
------------------

Total integrated alpha density =     44.999998157
Total integrated beta density  =     44.999998157

  ATOM     CHARGE      SPIN    
   0 O   -0.192139    0.000000
   1 O   -0.199242    0.000000
   2 O   -0.233516    0.000000
   3 N   -0.193076    0.000000
   4 C   -0.028287    0.000000
   5 C   -0.025646    0.000000
   6 C    0.068853    0.000000
   7 C    0.057115    0.000000
   8 C    0.034937    0.000000
   9 C    0.035566    0.000000
  10 C    0.000093    0.000000
  11 C   -0.078527    0.000000
  12 H    0.033845    0.000000
  13 H    0.042021    0.000000
  14 H    0.030252    0.000000
  15 H    0.039899    0.000000
  16 H    0.033903    0.000000
  17 H    0.037015    0.000000
  18 H    0.035704    0.000000
  19 H    0.035748    0.000000
  20 H    0.134996    0.000000
  21 H    0.171586    0.000000
  22 H    0.158903    0.000000

  TOTAL   0.000004    0.000000

-------
TIMINGS
-------

Total SCF time: 0 days 0 hours 0 min 5 sec 

Total time                  ....       5.958 sec
Sum of individual times     ....       5.876 sec  ( 98.6%)

SCF preparation             ....       0.151 sec  (  2.5%)
Fock matrix formation       ....       4.869 sec  ( 81.7%)
  Startup                   ....       0.014 sec  (  0.3% of F)
  Split-RI-J                ....       0.759 sec  ( 15.6% of F)
  XC integration            ....       3.858 sec  ( 79.3% of F)
    XC Preparation          ....       0.000 sec  (  0.0% of XC)
    Basis function eval.    ....       0.930 sec  ( 24.1% of XC)
    Density eval.           ....       0.775 sec  ( 20.1% of XC)
    XC-Functional eval.     ....       0.113 sec  (  2.9% of XC)
    XC-Potential eval.      ....       0.708 sec  ( 18.4% of XC)
Diagonalization             ....       0.000 sec  (  0.0%)
Density matrix formation    ....       0.045 sec  (  0.7%)
Total Energy calculation    ....       0.025 sec  (  0.4%)
Population analysis         ....       0.414 sec  (  6.9%)
Orbital Transformation      ....       0.037 sec  (  0.6%)
Orbital Orthonormalization  ....       0.000 sec  (  0.0%)
DIIS solution               ....       0.218 sec  (  3.7%)
SOSCF solution              ....       0.117 sec  (  2.0%)
Finished LeanSCF after   6.0 sec

Maximum memory used throughout the entire LEANSCF-calculation: 43.3 MB


           ************************************************************
           *        Program running with 16 parallel MPI-processes    *
           *              working on a common directory               *
           ************************************************************

------------------------------------------------------------------------------
                         ORCA PROPERTY INTEGRAL CALCULATIONS
------------------------------------------------------------------------------

GBWName                                   ... m1_00_Vitamin_B6-QM3_003-B97-3C-TZ.gbw
Number of atoms                           ...     23
Number of basis functions                 ...    276
Max core memory                           ...   6000 MB

Dipole integrals                          ... YES
Quadrupole integrals                      ...  NO
Linear momentum integrals                 ...  NO
Angular momentum integrals                ...  NO
Higher moments length integrals           ...  NO
Higher moments velocity integrals         ...  NO
Kinetic energy integrals                  ...  NO
GIAO right hand sides                     ...  NO
GIAO dipole derivative integrals          ...  NO
SOC integrals                             ...  NO
EPR diamagnetic integrals (GIAO)          ...  NO
EPR gauge integrals                       ...  NO
Field gradient integrals                  ...  NO (   0 nuclei)
Spin-dipole/Fermi contact integrals       ...  NO (   0 nuclei)
Contact density integrals                 ...  NO (   0 nuclei)
Nucleus-orbit integrals                   ...  NO (   0 nuclei)
Geometric perturbations                   ...  NO (  23 nuclei)

Choice of electric origin   ... Center of mass
Position of electric origin ... ( -0.0734,  0.0323,  0.0768) 
Choice of magnetic origin   ... GIAO
Position of magnetic origin ... (  0.0000,  0.0000,  0.0000) 

Calculating integrals                     ... Electric Dipole (Length)     done (  0.0 sec)

Property integrals calculated in   0.0 sec

Maximum memory used throughout the entire PROPINT-calculation: 16.7 MB


-------------------------------------------------------------------------------
                          DFT DISPERSION CORRECTION                            
                                                                               
                              DFTD3 V3.1  Rev 1                                
                          USING Becke-Johnson damping                          
-------------------------------------------------------------------------------
The B97-3c composite method is recognized
Using three-body term ABC
Active option DFTDOPT                   ...         4   

molecular C6(AA) [au] = 5021.292966 


            DFT-D V3
 parameters
 s6 scaling factor         :     1.0000 
 a1 scaling factor         :     0.3700 
 s8 scaling factor         :     1.5000 
 a2 scaling factor         :     4.1000 
 Damping factor alpha9(ATM):    16.0000 
 ad hoc parameters k1-k3   :    16.0000     1.3333    -4.0000 

 Edisp/kcal,au: -34.648518284573  -0.055215922660 
 E6   /kcal   : -17.673514992 
 E8   /kcal   : -17.037898940 
 E6(ABC)      :   0.062895648 
 % E8         :  49.173528288 
 % E6(ABC)    :  -0.181524784 

-------------------------   ----------------
Dispersion correction           -0.055215923
-------------------------   ----------------

------------------   -----------------
SRB correction            -0.068016396
------------------   -----------------

-------------------------   --------------------
FINAL SINGLE POINT ENERGY      -591.625025455113
-------------------------   --------------------



           ************************************************************
           *        Program running with 16 parallel MPI-processes    *
           *              working on a common directory               *
           ************************************************************
------------------------------------------------------------------------------
                         ORCA SCF GRADIENT CALCULATION
------------------------------------------------------------------------------

Nuc. rep. gradient        (SHARK) ... done (  0.0 sec)
HCore & Overlap gradient  (SHARK) ... done (  0.1 sec)
Split-RIJ-J gradient      (SHARK) ... done (  0.1 sec)
XC gradient                       ... done (  1.9 sec)
Dispersion correction             ... done (  0.1 sec)

-------------------
DISPERSION GRADIENT
-------------------

   1   O   :   -0.000831713   -0.000120105    0.000374710
   2   O   :   -0.000457638    0.000629802    0.000401914
   3   O   :    0.000676241    0.000726022    0.000048289
   4   N   :    0.000752242   -0.000661498   -0.000203356
   5   C   :   -0.000536985    0.000151573   -0.000095203
   6   C   :    0.000731687   -0.000017195   -0.000542239
   7   C   :   -0.000572489   -0.000343784    0.000234591
   8   C   :   -0.000004544   -0.000900443    0.000188232
   9   C   :   -0.000876292    0.000740798    0.000004857
  10   C   :    0.000718371    0.000624927   -0.000503712
  11   C   :    0.000873667   -0.000689344   -0.000336589
  12   C   :   -0.000185347   -0.000873992    0.000291928
  13   H   :   -0.000298063    0.000490410   -0.000109444
  14   H   :   -0.000459007    0.000323080   -0.000299706
  15   H   :    0.000337253    0.000204791   -0.000267500
  16   H   :    0.000182647    0.000336617   -0.000489617
  17   H   :    0.000459434   -0.000279617   -0.000162362
  18   H   :   -0.000245447   -0.000439697    0.000002026
  19   H   :   -0.000008182   -0.000397205    0.000104514
  20   H   :   -0.000089708   -0.000363384    0.000341465
  21   H   :   -0.000462305    0.000040100    0.000276010
  22   H   :   -0.000132078    0.000445345    0.000474479
  23   H   :    0.000428255    0.000372799    0.000266714

Difference to translation invariance:
           :    0.0000000000   -0.0000000000   -0.0000000000

Difference to rotation invariance:
           :   -0.0000000000    0.0000000000    0.0000000000

Norm of the Dispersion gradient    ...    0.0037862521
RMS gradient                       ...    0.0004558112
MAX gradient                       ...    0.0009004434
SRB correction                   ... done

------------------
CARTESIAN GRADIENT
------------------

   1   O   :    0.004745980    0.008472097   -0.001219166
   2   O   :    0.010170388   -0.006735148   -0.009235918
   3   O   :   -0.002331069   -0.011213923   -0.002898521
   4   N   :   -0.005113023    0.002133987    0.001765304
   5   C   :    0.002663255   -0.004602897    0.002142211
   6   C   :   -0.003175392   -0.002350107    0.003975713
   7   C   :   -0.007955536    0.001402674    0.002402532
   8   C   :    0.004958170    0.003747068   -0.003187441
   9   C   :   -0.008423522    0.002668679    0.013153192
  10   C   :    0.000547617    0.011089639    0.004085588
  11   C   :    0.003247033    0.002766620   -0.002043512
  12   C   :   -0.003823185   -0.002938521    0.002669572
  13   H   :    0.003351438   -0.000518041   -0.000480853
  14   H   :   -0.001391996   -0.001168642   -0.003243087
  15   H   :    0.002184633   -0.001130322    0.000707544
  16   H   :   -0.003235654   -0.000244177   -0.003429439
  17   H   :    0.001282021   -0.000253628   -0.000713027
  18   H   :   -0.000395387    0.000623490   -0.001461254
  19   H   :    0.001148020   -0.000985414   -0.000163727
  20   H   :    0.000654196    0.001040065    0.000834616
  21   H   :    0.002225368   -0.005081514   -0.003652420
  22   H   :   -0.001654788    0.001485176   -0.000052914
  23   H   :    0.000321432    0.001792839    0.000045009

Difference to translation invariance:
           :   -0.0000000000    0.0000000000    0.0000000000

Difference to rotation invariance:
           :   -0.0000370365   -0.0000007915   -0.0001218022

Norm of the Cartesian gradient     ...    0.0353183335
RMS gradient                       ...    0.0042518277
MAX gradient                       ...    0.0131531916

-------
TIMINGS
-------

Total SCF gradient time     ....        2.136 sec

Densities                   ....       0.001 sec  (  0.1%)
One electron gradient       ....       0.051 sec  (  2.4%)
RI-J Coulomb gradient       ....       0.131 sec  (  6.1%)
XC gradient                 ....       1.883 sec  ( 88.2%)

Maximum memory used throughout the entire SCFGRAD-calculation: 51.5 MB
------------------------------------------------------------------------------
                         ORCA GEOMETRY RELAXATION STEP
------------------------------------------------------------------------------

Reading the OPT-File                    .... done
Getting information on internals        .... done
Copying old internal coords+grads       .... done
Making the new internal coordinates     .... (2022 redundants) done
Validating the new internal coordinates .... (2022 redundants) done
Calculating the B-matrix                .... done
Calculating the G,G- and P matrices     .... done
Transforming gradient to internals      .... done
Projecting the internal gradient        .... done
Number of atoms                         ....  23
Number of internal coordinates          .... 104
Current Energy                          ....  -591.625025455 Eh
Current gradient norm                   ....     0.035318334 Eh/bohr
Maximum allowed component of the step   ....  0.300
Current trust radius                    ....  0.300
Evaluating the initial hessian          ....  (Almloef) done
Projecting the Hessian                  .... done
Forming the augmented Hessian           .... done
Diagonalizing the augmented Hessian     .... done
Last element of RFO vector              ....  0.982383513
Lowest eigenvalues of augmented Hessian:
 -0.002894160  0.012516739  0.012891875  0.015227327  0.020338376
Length of the computed step             ....  0.190227115
The final length of the internal step   ....  0.190227115
Converting the step to Cartesian space:
 Initial RMS(Int)=    0.0186533033
Transforming coordinates:
 Iter   0:  RMS(Cart)=    0.0572094280 RMS(Int)=    0.0188803475
 Iter   5:  RMS(Cart)=    0.0000000174 RMS(Int)=    0.0000000130
done
Storing new coordinates                 .... done

                                .--------------------.
          ----------------------|Geometry convergence|-------------------------
          Item                value                   Tolerance       Converged
          ---------------------------------------------------------------------
          RMS gradient        0.0029260819            0.0000300000      NO
          MAX gradient        0.0125626823            0.0001000000      NO
          RMS step            0.0186533033            0.0020000000      NO
          MAX step            0.0534243093            0.0040000000      NO
          ........................................................
          Max(Bonds)      0.0144      Max(Angles)    1.22
          Max(Dihed)        3.06      Max(Improp)    0.00
          ---------------------------------------------------------------------

The optimization has not yet converged - more geometry cycles are needed


    ---------------------------------------------------------------------------
                         Redundant Internal Coordinates
                            (Angstroem and degrees)

        Definition                    Value    dE/dq     Step     New-Value
    ----------------------------------------------------------------------------
     1. B(C   5,C   4)                1.3928 -0.005583  0.0052    1.3979   
     2. B(C   6,O   0)                1.3473 -0.007550  0.0066    1.3539   
     3. B(C   6,C   4)                1.3865 -0.006115  0.0073    1.3938   
     4. B(C   7,C   6)                1.4033 -0.001996  0.0021    1.4054   
     5. B(C   7,N   3)                1.3261 -0.000862  0.0003    1.3264   
     6. B(C   8,C   4)                1.5018 -0.003087  0.0055    1.5073   
     7. B(C   8,O   1)                1.4158 -0.012563  0.0130    1.4289   
     8. B(C   9,C   5)                1.5054 -0.000350  0.0005    1.5058   
     9. B(C   9,O   2)                1.4171 -0.008801  0.0091    1.4263   
    10. B(C  10,C   5)                1.3832 -0.002284  0.0016    1.3847   
    11. B(C  10,N   3)                1.3372  0.002211 -0.0024    1.3348   
    12. B(C  11,C   7)                1.4998  0.003570 -0.0045    1.4953   
    13. B(H  12,C   8)                1.0869  0.001558 -0.0022    1.0847   
    14. B(H  13,C   8)                1.0963  0.003199 -0.0048    1.0915   
    15. B(H  14,C   9)                1.0965  0.001947 -0.0029    1.0936   
    16. B(H  15,C   9)                1.0954  0.004162 -0.0062    1.0892   
    17. B(H  16,C  10)                1.0870  0.001475 -0.0021    1.0848   
    18. B(H  17,C  11)                1.0911  0.000874 -0.0013    1.0899   
    19. B(H  18,C  11)                1.0872  0.001505 -0.0022    1.0850   
    20. B(H  19,C  11)                1.0908  0.000806 -0.0012    1.0897   
    21. B(H  20,O   1)                1.8471 -0.002654  0.0144    1.8614   
    22. B(H  20,O   0)                0.9690 -0.008283  0.0069    0.9759   
    23. B(H  21,O   1)                0.9632 -0.000782  0.0008    0.9640   
    24. B(H  22,O   2)                0.9631 -0.000331  0.0003    0.9634   
    25. A(C   6,O   0,H  20)          106.93 -0.000800    0.45    107.38   
    26. A(C   8,O   1,H  21)          108.37  0.002132   -0.34    108.03   
    27. A(C   9,O   2,H  22)          108.24  0.002721   -0.43    107.80   
[...]
     35       0.000053   0.000005   0.000024
     36       0.006143   0.001140   0.000434
     37       0.001616   0.003525   0.000864
     38      -0.006752   0.002487  -0.000365
     39      -0.002656   0.012289   0.000390
     40      -0.001814   0.002014   0.000055
     41      -0.005587   0.008681   0.000062
     42       0.000554  -0.000301   0.001342
     43      -0.000642  -0.000068   0.001876
     44      -0.000256  -0.000128   0.001802
     45       0.000844  -0.000295   0.009766
     46      -0.001394   0.000249  -0.008821
     47       0.001623  -0.000614   0.009210
     48       0.000446  -0.000338   0.000022
     49      -0.000428   0.000166   0.000008
     50      -0.000069   0.000115   0.000489
     51       0.000873   0.000013   0.000049
     52      -0.000214  -0.000002   0.000058
     53       0.000011  -0.000016  -0.000031
     54      -0.001791  -0.000065  -0.000047
     55       0.001313   0.000115   0.000063
     56       0.000518   0.000008   0.000006
     57       0.000690   0.000046   0.000025
     58      -0.000398   0.000016  -0.000014
     59      -0.000814  -0.000058  -0.000110
     60      -0.305251   0.002454  -0.000110
     61       0.926465  -0.018812  -0.000110
     62       0.209714  -0.004082   0.000061
     63       0.015790   0.698871   0.011092
     64       0.010441   0.188757   0.003023
     65       0.009286   0.686413   0.011264
     66      -0.000069  -0.009005   0.542106
     67       0.000768   0.007163  -0.428227
     68       0.000105  -0.011292   0.719936


-----------
IR SPECTRUM
-----------

 Mode   freq       eps      Int      T**2         TX        TY        TZ
       cm**-1   L/(mol*cm) km/mol    a.u.
----------------------------------------------------------------------------
  6:     75.40   0.000723    3.65  0.002990  (-0.043958  0.019929  0.025709)
  7:     81.05   0.000203    1.02  0.000780  (-0.012889 -0.011568 -0.021905)
  8:    101.47   0.000387    1.96  0.001191  (-0.005183  0.031656  0.012741)
  9:    122.04   0.000317    1.60  0.000811  ( 0.018386  0.003126  0.021512)
 10:    130.15   0.001225    6.19  0.002936  ( 0.025791  0.034393  0.032989)
 11:    209.83   0.000541    2.73  0.000804  ( 0.020974 -0.012756  0.014206)
 12:    232.81   0.000395    1.99  0.000529  (-0.005225  0.021971  0.004336)
 13:    278.97   0.000634    3.20  0.000709  ( 0.010581  0.015434 -0.018946)
 14:    289.93   0.005372   27.15  0.005782  (-0.066615 -0.023910  0.027804)
 15:    318.92   0.002462   12.44  0.002409  (-0.044289 -0.012128  0.017320)
 16:    347.43   0.015971   80.71  0.014346  ( 0.101716  0.044483 -0.044953)
 17:    356.74   0.005198   26.27  0.004547  ( 0.029116  0.060347  0.007612)
 18:    413.85   0.005262   26.59  0.003968  ( 0.005446 -0.061299 -0.013450)
 19:    440.38   0.013747   69.47  0.009742  (-0.013340 -0.097507 -0.007494)
 20:    495.15   0.002255   11.40  0.001421  (-0.023510  0.024941  0.015699)
 21:    524.33   0.000913    4.61  0.000543  ( 0.013083 -0.019160  0.002242)
 22:    545.55   0.001219    6.16  0.000697  ( 0.011868  0.018727  0.014347)
 23:    582.84   0.001593    8.05  0.000853  (-0.026833  0.006977 -0.009183)
 24:    640.70   0.001313    6.64  0.000640  ( 0.014824 -0.008126 -0.018809)
 25:    677.41   0.001721    8.70  0.000793  (-0.010178 -0.020047  0.016956)
 26:    746.50   0.001211    6.12  0.000506  (-0.021367 -0.004764 -0.005193)
 27:    763.46   0.007833   39.59  0.003202  ( 0.049899 -0.018322  0.019397)
 28:    778.09   0.008424   42.57  0.003379  (-0.020128  0.025754 -0.048065)
 29:    883.65   0.003573   18.05  0.001262  (-0.010637 -0.019127 -0.027977)
 30:    909.19   0.004381   22.14  0.001504  (-0.014429  0.013730  0.033271)
 31:    944.32   0.002407   12.16  0.000795  ( 0.013815  0.014606  0.019781)
 32:    970.67   0.003573   18.06  0.001149  (-0.022196 -0.025583  0.001293)
 33:    989.01   0.010136   51.22  0.003198  ( 0.033259 -0.007496 -0.045122)
 34:   1001.90   0.021517  108.74  0.006702  ( 0.016636  0.068815  0.041106)
 35:   1028.16   0.002354   11.90  0.000715  ( 0.008724  0.021339 -0.013531)
 36:   1047.37   0.000420    2.12  0.000125  ( 0.003936  0.004592  0.009410)
 37:   1087.22   0.003205   16.20  0.000920  (-0.017986  0.013878  0.020098)
 38:   1189.09   0.002850   14.40  0.000748  (-0.016189 -0.016977 -0.014062)
 39:   1206.04   0.002510   12.69  0.000650  ( 0.006129  0.009008 -0.023040)
 40:   1250.50   0.019427   98.18  0.004848  (-0.061110  0.007166  0.032592)
 41:   1261.68   0.004725   23.88  0.001169  ( 0.017502  0.029340 -0.001263)
 42:   1300.35   0.000825    4.17  0.000198  (-0.006989  0.011017 -0.005278)
 43:   1317.97   0.003427   17.32  0.000811  ( 0.010554  0.024006 -0.011122)
 44:   1360.61   0.004131   20.88  0.000947  ( 0.021411  0.020740 -0.007673)
 45:   1373.32   0.030004  151.63  0.006818  (-0.067024 -0.030362  0.037468)
 46:   1386.96   0.002693   13.61  0.000606  ( 0.020051  0.008843 -0.011215)
 47:   1395.41   0.006051   30.58  0.001353  ( 0.014598 -0.028377 -0.018302)
 48:   1407.62   0.004816   24.34  0.001068  (-0.015680 -0.027329  0.008664)
 49:   1410.04   0.011003   55.60  0.002435  (-0.027665 -0.040432 -0.005908)
 50:   1440.56   0.011956   60.42  0.002590  (-0.039949  0.009150  0.030172)
 51:   1479.95   0.002009   10.15  0.000424  ( 0.020108  0.000500  0.004363)
 52:   1483.13   0.002624   13.26  0.000552  ( 0.009595 -0.005398 -0.020756)
 53:   1492.74   0.000891    4.50  0.000186  ( 0.005074 -0.009885  0.007920)
 54:   1514.70   0.000365    1.84  0.000075  (-0.000871 -0.003321 -0.007961)
 55:   1520.51   0.001008    5.09  0.000207  ( 0.010552  0.005224 -0.008260)
 56:   1584.35   0.003738   18.89  0.000736  ( 0.019191 -0.016674 -0.009483)
 57:   1619.96   0.001150    5.81  0.000222  ( 0.007304 -0.012966  0.000322)
 58:   2978.31   0.011189   56.54  0.001172  ( 0.019426 -0.002478 -0.028086)
 59:   3003.75   0.004381   22.14  0.000455  ( 0.009727  0.017004 -0.008449)
 60:   3015.23   0.004656   23.53  0.000482  ( 0.010214 -0.008089  0.017666)
 61:   3044.77   0.005000   25.27  0.000513  ( 0.013581 -0.012158  0.013425)
 62:   3053.25   0.003268   16.52  0.000334  ( 0.007281  0.003580  0.016377)
 63:   3092.19   0.001938    9.79  0.000196  ( 0.002811  0.012522 -0.005559)
 64:   3093.59   0.007516   37.98  0.000758  ( 0.023977  0.004540 -0.012755)
 65:   3116.70   0.002525   12.76  0.000253  (-0.008711  0.013267  0.000962)
 66:   3475.58   0.056755  286.82  0.005096  (-0.025447  0.064151  0.018249)
 67:   3732.41   0.004241   21.43  0.000355  ( 0.006014  0.007526  0.016181)
 68:   3734.79   0.003050   15.41  0.000255  ( 0.009958  0.002350  0.012255)

* The epsilon (eps) is given for a Dirac delta lineshape.
** The dipole moment derivative (T) already includes vibrational overlap.

The first frequency considered to be a vibration is 6
The total number of vibrations considered is 63


--------------------------
THERMOCHEMISTRY AT 298.15K
--------------------------

Temperature         ...   298.15 K
Pressure            ...     1.00 atm
Total Mass          ...   169.18 AMU
Quasi RRHO          ...     True
Cut-Off Frequency   ...     1.00 cm^-1

Throughout the following assumptions are being made:
  (1) The electronic state is orbitally nondegenerate
  (2) There are no thermally accessible electronically excited states
  (3) Hindered rotations indicated by low frequency modes are not
      treated as such but are treated as vibrations and this may
      cause some error
  (4) All equations used are the standard statistical mechanics
      equations for an ideal gas
  (5) All vibrations are strictly harmonic

freq.      75.40  E(vib)   ...       0.49 
freq.      81.05  E(vib)   ...       0.48 
freq.     101.47  E(vib)   ...       0.46 
freq.     122.04  E(vib)   ...       0.44 
freq.     130.15  E(vib)   ...       0.43 
freq.     209.83  E(vib)   ...       0.34 
freq.     232.81  E(vib)   ...       0.32 
freq.     278.97  E(vib)   ...       0.28 
freq.     289.93  E(vib)   ...       0.27 
freq.     318.92  E(vib)   ...       0.25 
freq.     347.43  E(vib)   ...       0.23 
freq.     356.74  E(vib)   ...       0.22 
freq.     413.85  E(vib)   ...       0.19 
freq.     440.38  E(vib)   ...       0.17 
freq.     495.15  E(vib)   ...       0.14 
freq.     524.33  E(vib)   ...       0.13 
freq.     545.55  E(vib)   ...       0.12 
freq.     582.84  E(vib)   ...       0.11 
freq.     640.70  E(vib)   ...       0.09 
freq.     677.41  E(vib)   ...       0.08 
freq.     746.50  E(vib)   ...       0.06 
freq.     763.46  E(vib)   ...       0.06 
freq.     778.09  E(vib)   ...       0.05 
freq.     883.65  E(vib)   ...       0.04 
freq.     909.19  E(vib)   ...       0.03 
freq.     944.32  E(vib)   ...       0.03 
freq.     970.67  E(vib)   ...       0.03 
freq.     989.01  E(vib)   ...       0.02 
freq.    1001.90  E(vib)   ...       0.02 
freq.    1028.16  E(vib)   ...       0.02 
freq.    1047.37  E(vib)   ...       0.02 
freq.    1087.22  E(vib)   ...       0.02 
freq.    1189.09  E(vib)   ...       0.01 
freq.    1206.04  E(vib)   ...       0.01 
freq.    1250.50  E(vib)   ...       0.01 
freq.    1261.68  E(vib)   ...       0.01 
freq.    1300.35  E(vib)   ...       0.01 
freq.    1317.97  E(vib)   ...       0.01 
freq.    1360.61  E(vib)   ...       0.01 
freq.    1373.32  E(vib)   ...       0.01 
freq.    1386.96  E(vib)   ...       0.00 
freq.    1395.41  E(vib)   ...       0.00 
freq.    1407.62  E(vib)   ...       0.00 
freq.    1410.04  E(vib)   ...       0.00 
freq.    1440.56  E(vib)   ...       0.00 
freq.    1479.95  E(vib)   ...       0.00 
freq.    1483.13  E(vib)   ...       0.00 
freq.    1492.74  E(vib)   ...       0.00 
freq.    1514.70  E(vib)   ...       0.00 
freq.    1520.51  E(vib)   ...       0.00 
freq.    1584.35  E(vib)   ...       0.00 
freq.    1619.96  E(vib)   ...       0.00 
freq.    2978.31  E(vib)   ...       0.00 
freq.    3003.75  E(vib)   ...       0.00 
freq.    3015.23  E(vib)   ...       0.00 
freq.    3044.77  E(vib)   ...       0.00 
freq.    3053.25  E(vib)   ...       0.00 
freq.    3092.19  E(vib)   ...       0.00 
freq.    3093.59  E(vib)   ...       0.00 
freq.    3116.70  E(vib)   ...       0.00 
freq.    3475.58  E(vib)   ...       0.00 
freq.    3732.41  E(vib)   ...       0.00 
freq.    3734.79  E(vib)   ...       0.00 

------------
INNER ENERGY
------------

The inner energy is: U= E(el) + E(ZPE) + E(vib) + E(rot) + E(trans)
    E(el)   - is the total energy from the electronic structure calculation
              = E(kin-el) + E(nuc-el) + E(el-el) + E(nuc-nuc)
    E(ZPE)  - the the zero temperature vibrational energy from the frequency calculation
    E(vib)  - the the finite temperature correction to E(ZPE) due to population
              of excited vibrational states
    E(rot)  - is the rotational thermal energy
    E(trans)- is the translational thermal energy

Summary of contributions to the inner energy U:
Electronic energy                ...   -591.62750406 Eh
Zero point energy                ...      0.18533017 Eh     116.30 kcal/mol
Thermal vibrational correction   ...      0.00913373 Eh       5.73 kcal/mol
Thermal rotational correction    ...      0.00141627 Eh       0.89 kcal/mol
Thermal translational correction ...      0.00141627 Eh       0.89 kcal/mol
-----------------------------------------------------------------------
Total thermal energy                   -591.43020763 Eh


Summary of corrections to the electronic energy:
(perhaps to be used in another calculation)
Total thermal correction                  0.01196627 Eh       7.51 kcal/mol
Non-thermal (ZPE) correction              0.18533017 Eh     116.30 kcal/mol
-----------------------------------------------------------------------
Total correction                          0.19729644 Eh     123.81 kcal/mol


--------
ENTHALPY
--------

The enthalpy is H = U + kB*T
                kB is Boltzmann's constant
Total thermal energy              ...   -591.43020763 Eh 
Thermal Enthalpy correction       ...      0.00094421 Eh       0.59 kcal/mol
-----------------------------------------------------------------------
Total Enthalpy                    ...   -591.42926342 Eh


Note: Only C1 symmetry has been detected, increase convergence thresholds 
      if your molecule has a higher symmetry. Symmetry factor of 1.0 is   
      used for the rotational entropy correction. 
 

Note: Rotational entropy computed according to Herzberg 
Infrared and Raman Spectra, Chapter V,1, Van Nostrand Reinhold, 1945 
Point Group:  C1, Symmetry Number:   1  
Rotational constants in cm-1:     0.042270     0.027554     0.017662 

Vibrational entropy computed according to the QRRHO of S. Grimme
Chem.Eur.J. 2012 18 9955 using a reference frequency of 100.0 cm-1


-------
ENTROPY
-------

The entropy contributions are T*S = T*(S(el)+S(vib)+S(rot)+S(trans))
     S(el)   - electronic entropy
     S(vib)  - vibrational entropy
     S(rot)  - rotational entropy
     S(trans)- translational entropy
The entropies will be listed as multiplied by the temperature to get
units of energy

Electronic entropy                ...      0.00000000 Eh      0.00 kcal/mol
Vibrational entropy               ...      0.01567043 Eh      9.83 kcal/mol
Rotational entropy                ...      0.01460544 Eh      9.17 kcal/mol
Translational entropy             ...      0.01961591 Eh     12.31 kcal/mol
-----------------------------------------------------------------------
Final entropy term                ...      0.04989178 Eh     31.31 kcal/mol

In case the symmetry of your molecule has not been determined correctly
or in case you have a reason to use a different symmetry number we print 
out the resulting rotational entropy values for sn=1,12:

 non-linear molecules -----------------------------------
|  sn= 1 | S(rot)=       0.01460544 Eh      9.17 kcal/mol|
|  sn= 2 | S(rot)=       0.01395098 Eh      8.75 kcal/mol|
|  sn= 3 | S(rot)=       0.01356815 Eh      8.51 kcal/mol|
|  sn= 4 | S(rot)=       0.01329652 Eh      8.34 kcal/mol|
|  sn= 5 | S(rot)=       0.01308583 Eh      8.21 kcal/mol|
|  sn= 6 | S(rot)=       0.01291369 Eh      8.10 kcal/mol|
|  sn= 7 | S(rot)=       0.01276814 Eh      8.01 kcal/mol|
|  sn= 8 | S(rot)=       0.01264207 Eh      7.93 kcal/mol|
|  sn= 9 | S(rot)=       0.01253086 Eh      7.86 kcal/mol|
|  sn=10 | S(rot)=       0.01243138 Eh      7.80 kcal/mol|
|  sn=11 | S(rot)=       0.01234139 Eh      7.74 kcal/mol|
|  sn=12 | S(rot)=       0.01225923 Eh      7.69 kcal/mol|
 linear molecules ---------------------------------------
|  Dinfh | S(rot)=       0.00913683 Eh      5.73 kcal/mol|
|  Cinfv | S(rot)=       0.00979129 Eh      6.14 kcal/mol|
 --------------------------------------------------------


-------------------
GIBBS FREE ENERGY
-------------------

The Gibbs free energy is G = H - T*S

Total enthalpy                    ...   -591.42926342 Eh 
Total entropy correction          ...     -0.04989178 Eh    -31.31 kcal/mol
-----------------------------------------------------------------------
Final Gibbs free energy         ...   -591.47915520 Eh

For completeness - the Gibbs free energy minus the electronic energy
G-E(el)                           ...      0.14834887 Eh     93.09 kcal/mol


Maximum memory used throughout the entire PROP-calculation: 69.5 MB

--------------------------------
SUGGESTED CITATIONS FOR THIS RUN
--------------------------------

Below you find a list of papers that are relevant to this ORCA run
We neither can nor want to force you to cite these papers, but we appreciate if you do
You receive ORCA, which is the product of decades of hard work by many enthusiastic individuals, for free
The only thing we kindly ask in return is that you cite our papers,
We deeply appreciate it, if you show your appreciation for ORCA by not just citing the generic ORCA reference.

Please note that relegating all ORCA citations to the supporting information does *not* help us.
SI sections are not indexed - citations you put there will not count into any citation statistics
But we need these citations in order to attract the funding resources that allow us to do what we are doing

Therefore, if you are a happy ORCA user, please consider citing a few of the papers listed below in the main body of your paper

In addition to the list printed below, the program has created the file m1_00_Vitamin_B6-QM3_003-B97-3C-TZ.bibtex that contains the list in bibtex format
You can import this file easily into all common literature databanks and citation aid programs


List of essential papers. We consider these as the minimum necessary citations

  1. Neese,F.
     Software update: the ORCA program system, version 5.0
     WIRES Comput. Molec. Sci., 2022 12(1)e1606
     doi.org/10.1002/wcms.1606

List of papers to cite with high priority. The work reported in these papers was absolutely
necessary for this run to complete.
Our perspective: the developers of density functionals and basis sets usually get cited in chemistry papers
Good! But without the algorithms to do something with them, the functionals or basis sets would not do anything.
Hence, in our opinion, the algorithm design and method developments papers are equally worthy of getting cited

  1. Neese,F.
     An improvement of the resolution of the identity approximation for the formation of the Coulomb matrix
     J. Comp. Chem., 2003 24(14)1740-1747
     doi.org/10.1002/jcc.10318
  2. Bykov,D.; Petrenko,T.; Izsak,R.; Kossmann,S.; Becker,U.; Valeev,E.; Neese,F.
     Efficient implementation of the analytic second derivatives of Hartree-Fock and hybrid DFT energies: a detailed analysis of different approximations
     Molec. Phys., 2015 113 1961-1977
     doi.org/10.1080/00268976.2015.1025114
  3. Neese,F.
     The SHARK Integral Generation and Digestion System
     J. Comp. Chem., 2022  1-16
     doi.org/10.1002/jcc.26942
  4. Grimme,S.; Antony,J.; Ehrlich,S.; Krieg,H.
     A consistent and accurate ab initio parametrization of density functional dispersion correction (DFT-D) for the 94 elements H-Pu
     J. Chem. Phys., 2010 132 154104
     doi.org/10.1063/1.3382344
  5. Grimme,S.; Ehrlich,S.; Goerigk,L.
     Effect of the damping function in dispersion corrected density functional theory
     J. Comput. Chem., 2011 32(7)1456-1465
     doi.org/10.1002/jcc.21759

List of suggested additional citations. These are papers that are important in the 'surrounding' of 
of this run, or papers that preceded the highly important papers. If you like your results we are grateful for a citation.

  1. Neese,F.
     The ORCA program system
     WIRES Comput. Molec. Sci., 2012 2(1)73-78
     doi.org/10.1002/wcms.81
  2. Neese,F.
     Software update: the ORCA program system, version 4.0
     WIRES Comput. Molec. Sci., 2018 8(1)1-6
     doi.org/10.1002/wcms.1327
  3. Neese,F.; Wennmohs,F.; Becker,U.; Riplinger,C.
     The ORCA quantum chemistry program package
     J. Chem. Phys., 2020 152 Art. No. L224108
     doi.org/10.1063/5.0004608

List of optional additional citations

  1. Neese,F.
     Approximate second-order SCF convergence for spin unrestricted wavefunctions
     Chem. Phys. Lett., 2000 325(1-3)93-98
     doi.org/10.1016/s0009-2614(00)00662-x

Timings for individual modules:

Sum of individual times          ...      171.448 sec (=   2.857 min)
Startup calculation              ...       27.328 sec (=   0.455 min)  15.9 %
SCF iterations                   ...       40.211 sec (=   0.670 min)  23.5 %
Property integrals               ...       36.080 sec (=   0.601 min)  21.0 %
SCF Response                     ...       25.232 sec (=   0.421 min)  14.7 %
Property calculations            ...       16.470 sec (=   0.274 min)   9.6 %
SCF Gradient evaluation          ...       26.077 sec (=   0.435 min)  15.2 %
Geometry relaxation              ...        0.052 sec (=   0.001 min)   0.0 %
                             ****ORCA TERMINATED NORMALLY****
TOTAL RUN TIME: 0 days 0 hours 2 minutes 53 seconds 873 msec
