
                                 *****************
                                 * O   R   C   A *
                                 *****************

                                            #,                                       
                                            ###                                      
                                            ####                                     
                                            #####                                    
                                            ######                                   
                                           ########,                                 
                                     ,,################,,,,,                         
                               ,,#################################,,                 
                          ,,##########################################,,             
                       ,#########################################, ''#####,          
                    ,#############################################,,   '####,        
                  ,##################################################,,,,####,       
                ,###########''''           ''''###############################       
              ,#####''   ,,,,##########,,,,          '''####'''          '####       
            ,##' ,,,,###########################,,,                        '##       
           ' ,,###''''                  '''############,,,                           
         ,,##''                                '''############,,,,        ,,,,,,###''
      ,#''                                            '''#######################'''  
     '                                                          ''''####''''         
             ,#######,   #######,   ,#######,      ##                                
            ,#'     '#,  ##    ##  ,#'     '#,    #''#        ,####,   ,####,        
            ##       ##  ##   ,#'  ##            #'  '#       #'       #'  '#        
            ##       ##  #######   ##           ,######,      #####,   #    #        
            '#,     ,#'  ##    ##  '#,     ,#' ,#      #,     #,   #   #,  ,#        
             '#######'   ##     ##  '#######'  #'      '#     '####' # '####'        



                #########################################################
                #                        -***-                          #
                #          Department of theory and spectroscopy        #
                #                                                       #
                #                      Frank Neese                      #
                #                                                       #
                #     Directorship, Architecture, Infrastructure        #
                #                    SHARK, DRIVERS                     #
                #        Core code/Algorithms in most modules           #
                #                                                       #
                #        Max Planck Institute fuer Kohlenforschung      #
                #                Kaiser Wilhelm Platz 1                 #
                #                 D-45470 Muelheim/Ruhr                 #
                #                      Germany                          #
                #                                                       #
                #                  All rights reserved                  #
                #                        -***-                          #
                #########################################################


                         Program Version 6.0.1  -  RELEASE   -


 With contributions from (in alphabetic order):
[Max-Planck-Institut fuer Kohlenforschung]                               
  Daniel Aravena         : Magnetic Suceptibility                        
  Michael Atanasov       : Ab Initio Ligand Field Theory (pilot matlab implementation)
  Alexander A. Auer      : GIAO ZORA, VPT2 properties, NMR spectrum      
  Ute Becker             : All parallelization in ORCA, NUMFREQ, NUMCALC 
  Giovanni Bistoni       : ED, misc. LED, open-shell LED, HFLD           
  Martin Brehm           : Molecular dynamics                            
  Dmytro Bykov           : pre 5.0 version of the SCF Hessian            
  Marcos Casanova-Páez   : Triplet and SCS-CIS(D). UHF-(DLPNO)-IP/EA/STEOM-CCSD. UHF-CVS-IP/STEOM-CCSD   
  Vijay G. Chilkuri      : MRCI spin determinant printing, contributions to CSF-ICE 
  Pauline Colinet        : FMM embedding                                 
  Dipayan Datta          : RHF DLPNO-CCSD density                        
  Achintya Kumar Dutta   : EOM-CC, STEOM-CC                              
  Nicolas Foglia         : Exact transition moments, OPA infrastructure, MCD improvements    
  Dmitry Ganyushin       : Spin-Orbit,Spin-Spin,Magnetic field MRCI      
  Miquel Garcia-Rates    : C-PCM and meta-GGA Hessian, CCSD/C-PCM, Gaussian charge scheme 
  Tiago L. C. Gouveia    : GS-ROHF, GS-ROCIS                             
  Yang Guo               : DLPNO-NEVPT2, F12-NEVPT2, CIM, IAO-localization        
  Andreas Hansen         : Spin unrestricted coupled pair/coupled cluster methods 
  Ingolf Harden          : AUTO-CI MPn and infrastructure                
  Benjamin Helmich-Paris : MC-RPA, TRAH-(SCF,CASSCF), AVAS, COSX integrals, SCF dyn. polar. 
  Lee Huntington         : MR-EOM, pCC                                   
  Robert Izsak           : Overlap fitted RIJCOSX, COSX-SCS-MP3, EOM     
  Riya Kayal             : Wick's Theorem for AUTO-CI, AUTO-CI UHF-CCSDT 
  Emily Kempfer          : AUTO-CI, RHF CISDT and CCSDT                  
  Christian Kollmar      : KDIIS, OOCD, Brueckner-CCSD(T), CCSD density, CASPT2, CASPT2-K, improved NEVPT2 
  Axel Koslowski         : Symmetry handling                             
  Simone Kossmann        : meta-GGA functionals, TD-DFT gradient, OOMP2, (MP2 Hessian; deprecated post 5.0) 
  Lucas Lang             : DCDCAS                                        
  Marvin Lechner         : AUTO-CI (C++ implementation), FIC-MRCC        
  Spencer Leger          : CASSCF response                               
  Dagmar Lenk            : GEPOL surface, SMD, ORCA-2-JSON               
  Dimitrios Liakos       : Extrapolation schemes; Compound Job, initial MDCI parallelization 
  Dimitrios Manganas     : Further ROCIS development; embedding schemes. LFT, Crystal Embedding 
  Dimitrios Pantazis     : SARC Basis sets                               
  Anastasios Papadopoulos: AUTO-CI, single reference methods and gradients 
  Taras Petrenko         : pre 6.0 DFT Hessian and TD-DFT gradient, (ASA, deprecated), ECA, 1-Electron XAS/XES, NRVS 
  Peter Pinski           : DLPNO-MP2, DLPNO-MP2 Gradient                 
  Christoph Reimann      : Effective Core Potentials                     
  Marius Retegan         : Local ZFS, SOC                                
  Christoph Riplinger    : Optimizer, TS searches, QM/MM, DLPNO-CCSD(T), (RO)-DLPNO pert. Triples 
  Michael Roemelt        : Original ROCIS implementation                 
  Masaaki Saitow         : Open-shell DLPNO-CCSD energy and density      
  Barbara Sandhoefer     : DKH picture change effects                    
  Kantharuban Sivalingam : CASSCF convergence/infrastructure, NEVPT2 and variants, FIC-MRCI 
  Bernardo de Souza      : ESD, SOC TD-DFT                               
  Georgi L. Stoychev     : AutoAux, RI-MP2 NMR, DLPNO-MP2 response, X2C  
  Van Anh Tran           : RI-MP2 g-tensors                              
  Willem Van den Heuvel  : Paramagnetic NMR                              
  Zikuan Wang            : NOTCH, Electric field optimization            
  Frank Wennmohs         : Technical directorship and infrastructure     
  Hang Xu                : AUTO-CI-Response properties                   
                                                                         
[FACCTs GmbH]                                                            
  Markus Bursch, Miquel Garcia-Rates, Christoph Riplinger, Bernardo de Souza, Georgi L. Stoychev 
                                                                 
  APM, Basis sets (HGBS, AHGBS, def-TZVP (Ac-Lr), def2-XVPD (La-Lu)), CI-OPT, improved COSX, DLPNO-Multilevel,           
  DOCKER, DRACO, updates on ESD, GOAT, IRC, LR-CPCM, MBIS, meta-GGA TD-DFT gradient, ML-optimized integration grids, 
  MM, NACMEs, nearIR, NEB, NEB-TS, NL-DFT gradient (VV10), 2- and 3-layer-ONIOM, interface openCOSMO-RS, QMMM,   
  Crystal-QMMM, SF, symmetry and pop. for TD-DFT, r2SCAN hybrids, SOLVATOR                                   
                                                                         
[Other institutions]                                                     
  V. Asgeirsson          : NEB                                           
  Christoph Bannwarth    : sTDA-DFT, sTD-DFT, PBEh-3c, B97-3c, D3        
  Sebastian Ehlert       : rSCAN, r2SCAN, r2SCAN-3c, D4, dhf basis sets  
  Marvin Friede          : D4 for Fr, Ra, Ac-Lr                          
  Lars Goerigk           : TD-DFT with DH, B97 family of functionals     
  Stefan Grimme          : VdW corrections, initial TS optimization, DFT functionals, gCP, sTDA/sTD-DF 
  Waldemar Hujo          : DFT-NL                                        
  H. Jonsson             : NEB                                           
  Holger Kruse           : gCP                                           
  Marcel Mueller         : wB97X-3c, vDZP basis set                      
  Hagen Neugebauer       : wr2SCAN                                       
  Tobias Risthaus        : range-separated hybrid DFT                    
  Lukas Wittmann         : regularized MP2, r2SCAN double-hybrids, wr2SCAN        
                                                                         
We gratefully acknowledge several colleagues who have allowed us to      
interface, adapt or use parts of their codes:                            
  Ed Valeev, F. Pavosevic, A. Kumar             : LibInt (2-el integral package), F12 methods 
  Garnet Chan, S. Sharma, J. Yang, R. Olivares  : DMRG                   
  Ulf Ekstrom                                   : XCFun DFT Library      
  Mihaly Kallay                                 : mrcc  (arbitrary order and MRCC methods)
  Frank Weinhold                                : gennbo (NPA and NBO analysis)           
  Simon Mueller                                 : openCOSMO-RS                            
  Christopher J. Cramer and Donald G. Truhlar   : smd solvation model                     
  S Lehtola, MJT Oliveira, MAL Marques          : LibXC Library                           
  Liviu Ungur et al                             : ANISO software                          


 Your calculation uses the libint2 library for the computation of 2-el integrals
 For citations please refer to: http://libint.valeyev.net

 Your ORCA version has been built with support for libXC version: 6.2.2
 For citations please refer to: https://libxc.gitlab.io

 This ORCA versions uses:
   CBLAS   interface :  Fast vector & matrix operations
   LAPACKE interface :  Fast linear algebra routines
   SCALAPACK package :  Parallel linear algebra routines
   Shared memory     :  Shared parallel matrices
   BLAS/LAPACK       :  OpenBLAS 0.3.27  USE64BITINT DYNAMIC_ARCH NO_AFFINITY Zen SINGLE_THREADED
        Core in use  :  Zen
   Copyright (c) 2011-2014, The OpenBLAS Project


NOTE: MaxCore=6000 MB was set to SCF,MP2,MDCI,CIPSI,MRCI and CIS
      => If you want to overwrite this, your respective input block should be placed after the MaxCore statement
Your calculation utilizes the atom-pairwise dispersion correction
with the Becke-Johnson damping scheme (D3BJ)


Your calculation employs the composite approach B97-3c by Grimme and coworkers.
For the correct reference, please check the publication list of the Grimme group:
http://www.thch.uni-bonn.de/tc/index.php?section=publikationen&subsection=grimme#2017
   

XCFun DFT library Copyright 2009-2010 Ulf Ekstrom and contributors.
See http://admol.org/xcfun for more information.
This is free software; see the source code for copying conditions.
There is ABSOLUTELY NO WARRANTY; not even for MERCHANTABILITY or FITNESS FOR A PARTICULAR PURPOSE.
For details see the documentation.
Scientific users of this library should cite U. Ekstrom, L. Visscher, R. Bast, A. J. Thorvaldsen and K. Ruud;
J.Chem.Theor.Comp. 2010, DOI: 10.1021/ct100117s
XCFun Version 0.99 

================================================================================

----- Orbital basis set information -----
Your calculation utilizes the basis: def2-mTZVP
----- AuxJ basis set information -----
Your calculation utilizes the basis: def2-mTZVP/J
================================================================================
                                        WARNINGS
                       Please study these warnings very carefully!
================================================================================


WARNING: Geometry Optimization
  ===> : Switching off AutoStart
         For restart on a previous wavefunction, please use MOREAD

================================================================================
                                       INPUT FILE
================================================================================
NAME = m1_00_Vitamin_B6-QM3_002-B97-3C-TZ.inp
|  1> %pal nprocs 16 end
|  2> %MaxCore 6000
|  3> # put your comments here
|  4> ! B97-3C  OPT  FREQ DEFGRID3 NOTRAH
|  5> %scf MaxIter 800 end
|  6> %output
|  7> Print [P_Hirshfeld] 1
|  8> end
|  9> %geom
| 10> MaxIter 3000
| 11>  TolE 1e-6 #TolE 5e-6 Energy change (a.u.)
| 12>  TolRMSG 3e-5 #TolRMSG 1e-4 RMS gradient (a.u.)
| 13>  TolMaxG 1e-4 #TolMaxG 3e-3 Max. element of gradient (a.u.)
| 14>  TolRMSD 2e-3 #TolRMSD 2e-3 RMS displacement (a.u.)
| 15>  TolMaxD 4e-3 #TolMaxD 4e-3 Max. displacement (a.u.)
| 16> end
| 17> * xyz 0 1
| 18>  O       2.32108604      -0.54748663       0.32469087
| 19>  O       1.56876063      -0.49917189      -2.26803289
| 20>  O      -2.01829198       0.64349328      -2.31764040
| 21>  N      -0.55013732       0.74499479       2.04844147
| 22>  C       0.05038855      -0.40889887      -0.39528274
| 23>  C      -1.24775058       0.01341997      -0.11899890
| 24>  C       1.03861832      -0.20512377       0.55561313
| 25>  C       0.69501451       0.36982752       1.78876308
| 26>  C       0.43105712      -1.09744995      -1.67452446
| 27>  C      -2.33634218      -0.09827622      -1.15276050
| 28>  C      -1.49514659       0.58482879       1.11607674
| 29>  C       1.75422462       0.56630267       2.83220631
| 30>  H       0.70667236      -2.13690395      -1.46141390
| 31>  H      -0.40813691      -1.10261881      -2.36525617
| 32>  H      -2.47460683      -1.13827190      -1.46774457
| 33>  H      -3.28380046       0.23975785      -0.71638929
| 34>  H      -2.49249641       0.92853395       1.37806296
| 35>  H       2.55868552       1.19352174       2.44572629
| 36>  H       1.31653581       1.03391317       3.71072186
| 37>  H       2.19716507      -0.39087113       3.11186087
| 38>  H       2.42404683      -0.62426708      -0.63573290
| 39>  H       1.30630402       0.35021366      -2.63886072
| 40>  H      -2.06185014       1.58053281      -2.09952615
| 41> *
| 42> 
| 43> 
| 44> 
| 45> 
| 46>                          ****END OF INPUT****
================================================================================

                       *****************************
                       * Geometry Optimization Run *
                       *****************************

Geometry optimization settings:
Update method            Update   .... BFGS
Choice of coordinates    CoordSys .... (2022) Redundant Internals
Initial Hessian          InHess   .... Almloef's Model
Max. no of cycles        MaxIter  .... 3000

Convergence Tolerances:
Energy Change            TolE     ....  1.0000e-06 Eh
Max. Gradient            TolMAXG  ....  1.0000e-04 Eh/bohr
RMS Gradient             TolRMSG  ....  3.0000e-05 Eh/bohr
Max. Displacement        TolMAXD  ....  4.0000e-03 bohr
RMS Displacement         TolRMSD  ....  2.0000e-03 bohr
Strict Convergence                .... False

------------------------------------------------------------------------------
                        ORCA OPTIMIZATION COORDINATE SETUP
------------------------------------------------------------------------------

The optimization will be done in redundant internal coordinates (2022)
Making redundant internal coordinates   ...  (2022 redundants) done
Evaluating the initial hessian          ...  (Almloef) done
Evaluating the coordinates              ...  done
Calculating the B-matrix                .... done
Calculating the G-matrix                .... done
Diagonalizing the G-matrix              .... done
Small eigenvalue found = 2.838e-02
The first mode is                       ....   41
The number of degrees of freedom        ....   63

    -----------------------------------------------------------------
                    Redundant Internal Coordinates


    -----------------------------------------------------------------
         Definition                    Initial Value    Approx d2E/dq
    -----------------------------------------------------------------
      1. B(C   5,C   4)                  1.3928         0.618436   
      2. B(C   6,O   0)                  1.3473         0.654598   
      3. B(C   6,C   4)                  1.3865         0.632929   
      4. B(C   7,C   6)                  1.4033         0.594972   
      5. B(C   7,N   3)                  1.3261         0.707614   
      6. B(C   8,C   4)                  1.5018         0.414317   
      7. B(C   8,O   1)                  1.4158         0.508949   
      8. B(C   9,C   5)                  1.5054         0.408937   
      9. B(C   9,O   2)                  1.4172         0.506471   
     10. B(C  10,C   5)                  1.3832         0.640701   
     11. B(C  10,N   3)                  1.3372         0.679480   
     12. B(C  11,C   7)                  1.4998         0.417457   
     13. B(H  12,C   8)                  1.0963         0.351879   
     14. B(H  13,C   8)                  1.0869         0.364205   
     15. B(H  14,C   9)                  1.0954         0.353014   
     16. B(H  15,C   9)                  1.0965         0.351573   
     17. B(H  16,C  10)                  1.0870         0.364147   
     18. B(H  17,C  11)                  1.0908         0.358993   
     19. B(H  18,C  11)                  1.0872         0.363813   
     20. B(H  19,C  11)                  1.0911         0.358596   
     21. B(H  20,O   1)                  1.8470         0.019987   
     22. B(H  20,O   0)                  0.9690         0.503095   
     23. B(H  21,O   1)                  0.9633         0.513783   
     24. B(H  22,O   2)                  0.9631         0.514115   
     25. A(C   6,O   0,H  20)          106.9274         0.371477   
     26. A(C   8,O   1,H  21)          108.3637         0.357109   
     27. A(C   9,O   2,H  22)          108.2377         0.356852   
     28. A(C   7,N   3,C  10)          119.5481         0.446045   
     29. A(C   5,C   4,C   8)          122.9723         0.403798   
     30. A(C   6,C   4,C   8)          118.0933         0.405453   
     31. A(C   5,C   4,C   6)          118.9282         0.435484   
     32. A(C   4,C   5,C  10)          117.9762         0.436442   
     33. A(C   4,C   5,C   9)          121.0158         0.402868   
     34. A(C   9,C   5,C  10)          120.9642         0.405390   
     35. A(O   0,C   6,C   7)          119.1953         0.432243   
     36. A(C   4,C   6,C   7)          119.2333         0.432463   
     37. A(O   0,C   6,C   4)          121.5714         0.437081   
     38. A(N   3,C   7,C  11)          119.3294         0.411423   
     39. A(N   3,C   7,C   6)          121.1905         0.438346   
     40. A(C   6,C   7,C  11)          119.4800         0.401587   
     41. A(H  12,C   8,H  13)          108.2484         0.290303   
     42. A(C   4,C   8,H  13)          110.3522         0.330516   
     43. A(O   1,C   8,H  13)          110.8567         0.339945   
     44. A(C   4,C   8,H  12)          109.4419         0.328641   
     45. A(O   1,C   8,H  12)          106.2677         0.337997   
     46. A(O   1,C   8,C   4)          111.5315         0.387738   
     47. A(H  14,C   9,H  15)          107.3407         0.288847   
     48. A(C   5,C   9,H  15)          109.1882         0.327886   
     49. A(O   2,C   9,H  15)          111.0803         0.337673   
     50. A(C   5,C   9,H  14)          111.0500         0.328108   
     51. A(O   2,C   9,H  14)          106.7927         0.337904   
     52. A(O   2,C   9,C   5)          111.3053         0.386527   
     53. A(N   3,C  10,C   5)          123.0723         0.441004   
     54. A(C   5,C  10,H  16)          120.6620         0.355552   
     55. A(N   3,C  10,H  16)          116.2654         0.356898   
     56. A(H  17,C  11,H  18)          109.6258         0.291168   
     57. A(C   7,C  11,H  18)          109.5246         0.330870   
     58. A(C   7,C  11,H  17)          110.4669         0.330141   
     59. A(H  18,C  11,H  19)          109.4887         0.291117   
     60. A(H  17,C  11,H  19)          107.2072         0.290508   
     61. A(C   7,C  11,H  19)          110.4929         0.330081   
     62. D(C  10,C   5,C   4,C   6)     -1.8385         0.026457   
     63. D(C   9,C   5,C   4,C   8)     -5.1459         0.026457   
     64. D(C   9,C   5,C   4,C   6)    175.7748         0.026457   
     65. D(C  10,C   5,C   4,C   8)    177.2408         0.026457   
     66. D(O   0,C   6,C   4,C   5)   -177.5130         0.027792   
     67. D(C   4,C   6,O   0,H  20)     19.5402         0.031705   
     68. D(C   7,C   6,C   4,C   5)      2.5698         0.027792   
     69. D(O   0,C   6,C   4,C   8)      3.3626         0.027792   
     70. D(C   7,C   6,O   0,H  20)   -160.5426         0.031705   
     71. D(C   7,C   6,C   4,C   8)   -176.5546         0.027792   
     72. D(N   3,C   7,C   6,C   4)     -1.3740         0.024382   
     73. D(N   3,C   7,C   6,O   0)    178.7069         0.024382   
     74. D(C  11,C   7,N   3,C  10)    179.2976         0.037576   
     75. D(C  11,C   7,C   6,O   0)     -1.1955         0.024382   
     76. D(C   6,C   7,N   3,C  10)     -0.6049         0.037576   
     77. D(C  11,C   7,C   6,C   4)    178.7237         0.024382   
     78. D(H  13,C   8,C   4,C   5)      6.5694         0.012704   
     79. D(H  12,C   8,C   4,C   5)   -112.4509         0.012704   
     80. D(O   1,C   8,C   4,C   6)    -50.6622         0.012704   
     81. D(O   1,C   8,C   4,C   5)    130.2513         0.012704   
     82. D(H  12,C   8,O   1,H  21)    167.9980         0.022248   
     83. D(H  12,C   8,C   4,C   6)     66.6356         0.012704   
     84. D(C   4,C   8,O   1,H  21)    -72.8009         0.022248   
     85. D(H  13,C   8,O   1,H  21)     50.5949         0.022248   
     86. D(H  14,C   9,C   5,C   4)     58.9659         0.012388   
     87. D(O   2,C   9,C   5,C  10)    117.6673         0.012388   
     88. D(O   2,C   9,C   5,C   4)    -59.8745         0.012388   
     89. D(H  15,C   9,O   2,H  22)     52.3181         0.020296   
     90. D(H  14,C   9,O   2,H  22)    169.0609         0.020296   
     91. D(H  14,C   9,C   5,C  10)   -123.4923         0.012388   
     92. D(C   5,C   9,O   2,H  22)    -69.5804         0.020296   
     93. D(H  15,C   9,C   5,C   4)    177.1357         0.012388   
     94. D(H  16,C  10,C   5,C   9)      2.4630         0.028525   
     95. D(H  16,C  10,C   5,C   4)   -179.9225         0.028525   
     96. D(N   3,C  10,C   5,C   9)   -177.7532         0.028525   
     97. D(N   3,C  10,C   5,C   4)     -0.1387         0.028525   
     98. D(H  16,C  10,N   3,C   7)   -178.8245         0.034383   
     99. D(C   5,C  10,N   3,C   7)      1.3829         0.034383   
    100. D(H  19,C  11,C   7,N   3)    119.9462         0.012891   
    101. D(H  18,C  11,C   7,C   6)    179.1585         0.012891   
    102. D(H  18,C  11,C   7,N   3)     -0.7457         0.012891   
    103. D(H  17,C  11,C   7,C   6)     58.3129         0.012891   
    104. D(H  17,C  11,C   7,N   3)   -121.5913         0.012891   
    -----------------------------------------------------------------

Number of atoms                         .... 23
Number of degrees of freedom            .... 104


         *************************************************************
         *                GEOMETRY OPTIMIZATION CYCLE   1            *
         *************************************************************
---------------------------------
CARTESIAN COORDINATES (ANGSTROEM)
---------------------------------
  O      2.321086   -0.547487    0.324691
  O      1.568761   -0.499172   -2.268033
  O     -2.018292    0.643493   -2.317640
  N     -0.550137    0.744995    2.048441
  C      0.050389   -0.408899   -0.395283
  C     -1.247751    0.013420   -0.118999
  C      1.038618   -0.205124    0.555613
  C      0.695015    0.369828    1.788763
  C      0.431057   -1.097450   -1.674524
  C     -2.336342   -0.098276   -1.152761
  C     -1.495147    0.584829    1.116077
  C      1.754225    0.566303    2.832206
  H      0.706672   -2.136904   -1.461414
  H     -0.408137   -1.102619   -2.365256
  H     -2.474607   -1.138272   -1.467745
  H     -3.283800    0.239758   -0.716389
  H     -2.492496    0.928534    1.378063
  H      2.558686    1.193522    2.445726
  H      1.316536    1.033913    3.710722
  H      2.197165   -0.390871    3.111861
  H      2.424047   -0.624267   -0.635733
  H      1.306304    0.350214   -2.638861
  H     -2.061850    1.580533   -2.099526

----------------------------
CARTESIAN COORDINATES (A.U.)
----------------------------
  NO LB      ZA    FRAG     MASS         X           Y           Z
   0 O     8.0000    0    15.999    4.386217   -1.034600    0.613577
   1 O     8.0000    0    15.999    2.964528   -0.943298   -4.285961
   2 O     8.0000    0    15.999   -3.814019    1.216026   -4.379706
   3 N     7.0000    0    14.007   -1.039609    1.407836    3.870993
   4 C     6.0000    0    12.011    0.095221   -0.772707   -0.746976
   5 C     6.0000    0    12.011   -2.357907    0.025360   -0.224875
   6 C     6.0000    0    12.011    1.962704   -0.387628    1.049957
   7 C     6.0000    0    12.011    1.313387    0.698873    3.380272
   8 C     6.0000    0    12.011    0.814580   -2.073880   -3.164393
   9 C     6.0000    0    12.011   -4.415047   -0.185715   -2.178402
  10 C     6.0000    0    12.011   -2.825418    1.105166    2.109079
  11 C     6.0000    0    12.011    3.315004    1.070157    5.352094
  12 H     1.0000    0     1.008    1.335417   -4.038163   -2.761672
  13 H     1.0000    0     1.008   -0.771267   -2.083648   -4.469686
  14 H     1.0000    0     1.008   -4.676329   -2.151022   -2.773635
  15 H     1.0000    0     1.008   -6.205484    0.453077   -1.353780
  16 H     1.0000    0     1.008   -4.710136    1.754675    2.604162
  17 H     1.0000    0     1.008    4.835215    2.255429    4.621753
  18 H     1.0000    0     1.008    2.487892    1.953813    7.012248
  19 H     1.0000    0     1.008    4.152040   -0.738639    5.880565
  20 H     1.0000    0     1.008    4.580785   -1.179694   -1.201361
  21 H     1.0000    0     1.008    2.468557    0.661808   -4.986724
  22 H     1.0000    0     1.008   -3.896332    2.986774   -3.967529

--------------------------------
INTERNAL COORDINATES (ANGSTROEM)
--------------------------------
 O      0   0   0     0.000000000000     0.00000000     0.00000000
 O      1   0   0     2.700100800396     0.00000000     0.00000000
 O      2   1   0     3.764982207486   106.47181522     0.00000000
 N      1   2   3     3.589672399406   103.40278102   356.14339286
 C      1   2   3     2.386134040118    56.22579598    14.81421592
 C      5   1   2     1.392785397576   147.64108112   207.40890575
 C      1   2   3     1.347316173329    83.96209249     3.43938591
 C      4   1   2     1.326117048554    18.75259727   197.56950175
 C      2   1   3     1.415824201737    79.26938868   316.60333423
 C      3   2   1     1.417153168248    92.52953922   321.39318405
 C      4   1   2     1.337161044037   100.79674504    18.20102276
 C      8   4   1     1.499767420611   119.32940559   178.58452420
 H      9   2   1     1.096286682132   106.26771181   283.58377371
 H      9   2   1     1.086914730925   110.85673552   166.18065249
 H     10   3   2     1.095410011006   106.79271624   280.65576686
 H     10   3   2     1.096523623885   111.08031392   163.91297433
 H     11   4   1     1.086957533639   116.26535698   181.40891867
 H     12   8   4     1.090838167310   110.46693627   238.40872211
 H     12   8   4     1.087207728864   109.52456155   359.25431418
 H     12   8   4     1.091139128884   110.49294307   119.94617286
 H      1   2   3     0.968973673409    22.96620500   183.93228192
 H      2   1   3     0.963251039026   117.47502732    61.84396031
 H      3   2   1     0.963075396913   109.59686650    71.77383778

---------------------------
INTERNAL COORDINATES (A.U.)
---------------------------
 O      0   0   0     0.000000000000     0.00000000     0.00000000
 O      1   0   0     5.102451046731     0.00000000     0.00000000
 O      2   1   0     7.114785271235   106.47181522     0.00000000
 N      1   2   3     6.783497745373   103.40278102   356.14339286
 C      1   2   3     4.509139854650    56.22579598    14.81421592
 C      5   1   2     2.631982964743   147.64108112   207.40890575
 C      1   2   3     2.546058583394    83.96209249     3.43938591
 C      4   1   2     2.505998043290    18.75259727   197.56950175
 C      2   1   3     2.675519995061    79.26938868   316.60333423
 C      3   2   1     2.678031377807    92.52953922   321.39318405
 C      4   1   2     2.526868170178   100.79674504    18.20102276
 C      8   4   1     2.834149689533   119.32940559   178.58452420
 H      9   2   1     2.071681593494   106.26771181   283.58377371
 H      9   2   1     2.053971172372   110.85673552   166.18065249
 H     10   3   2     2.070024925157   106.79271624   280.65576686
 H     10   3   2     2.072129348518   111.08031392   163.91297433
 H     11   4   1     2.054052057780   116.26535698   181.40891867
 H     12   8   4     2.061385392644   110.46693627   238.40872211
 H     12   8   4     2.054524858235   109.52456155   359.25431418
 H     12   8   4     2.061954127596   110.49294307   119.94617286
 H      1   2   3     1.831094873724    22.96620500   183.93228192
 H      2   1   3     1.820280661974   117.47502732    61.84396031
 H      3   2   1     1.819948746482   109.59686650    71.77383778

---------------------
BASIS SET INFORMATION
---------------------
There are 4 groups of distinct atoms

 Group   1 Type O   : 11s6p2d contracted to 5s3p2d pattern {62111/411/11}
 Group   2 Type N   : 11s6p1d contracted to 5s3p1d pattern {62111/411/1}
 Group   3 Type C   : 11s6p1d contracted to 5s3p1d pattern {62111/411/1}
 Group   4 Type H   : 5s contracted to 3s pattern {311}

Atom   0O    basis set group =>   1
Atom   1O    basis set group =>   1
Atom   2O    basis set group =>   1
Atom   3N    basis set group =>   2
Atom   4C    basis set group =>   3
Atom   5C    basis set group =>   3
Atom   6C    basis set group =>   3
Atom   7C    basis set group =>   3
Atom   8C    basis set group =>   3
Atom   9C    basis set group =>   3
Atom  10C    basis set group =>   3
Atom  11C    basis set group =>   3
Atom  12H    basis set group =>   4
Atom  13H    basis set group =>   4
Atom  14H    basis set group =>   4
Atom  15H    basis set group =>   4
Atom  16H    basis set group =>   4
Atom  17H    basis set group =>   4
Atom  18H    basis set group =>   4
Atom  19H    basis set group =>   4
Atom  20H    basis set group =>   4
Atom  21H    basis set group =>   4
Atom  22H    basis set group =>   4
---------------------------------
AUXILIARY/J BASIS SET INFORMATION
---------------------------------
There are 4 groups of distinct atoms

 Group   1 Type O   : 8s3p3d contracted to 6s3p3d pattern {311111/111/111}
 Group   2 Type N   : 8s3p3d contracted to 6s3p3d pattern {311111/111/111}
 Group   3 Type C   : 8s3p3d contracted to 6s3p3d pattern {311111/111/111}
 Group   4 Type H   : 5s2p contracted to 3s1p pattern {311/2}

Atom   0O    basis set group =>   1
Atom   1O    basis set group =>   1
Atom   2O    basis set group =>   1
Atom   3N    basis set group =>   2
Atom   4C    basis set group =>   3
Atom   5C    basis set group =>   3
Atom   6C    basis set group =>   3
Atom   7C    basis set group =>   3
Atom   8C    basis set group =>   3
Atom   9C    basis set group =>   3
Atom  10C    basis set group =>   3
Atom  11C    basis set group =>   3
Atom  12H    basis set group =>   4
Atom  13H    basis set group =>   4
Atom  14H    basis set group =>   4
Atom  15H    basis set group =>   4
Atom  16H    basis set group =>   4
Atom  17H    basis set group =>   4
Atom  18H    basis set group =>   4
Atom  19H    basis set group =>   4
Atom  20H    basis set group =>   4
Atom  21H    basis set group =>   4
Atom  22H    basis set group =>   4


           ************************************************************
           *        Program running with 16 parallel MPI-processes    *
           *              working on a common directory               *
           ************************************************************
------------------------------------------------------------------------------
                             ORCA STARTUP CALCULATIONS
                           -- RI-GTO INTEGRALS CHOSEN --
------------------------------------------------------------------------------
------------------------------------------------------------------------------
                   ___                                                        
                  /   \      - P O W E R E D   B Y -                         
                 /     \                                                     
                 |  |  |   _    _      __       _____    __    __             
                 |  |  |  | |  | |    /  \     |  _  \  |  |  /  |          
                  \  \/   | |  | |   /    \    | | | |  |  | /  /          
                 / \  \   | |__| |  /  /\  \   | |_| |  |  |/  /          
                |  |  |   |  __  | /  /__\  \  |    /   |      \           
                |  |  |   | |  | | |   __   |  |    \   |  |\   \          
                \     /   | |  | | |  |  |  |  | |\  \  |  | \   \       
                 \___/    |_|  |_| |__|  |__|  |_| \__\ |__|  \__/        
                                                                              
                      - O R C A' S   B I G   F R I E N D -                    
                                      &                                       
                       - I N T E G R A L  F E E D E R -                       
                                                                              
 v1 FN, 2020, v2 2021, v3 2022-2024                                           
------------------------------------------------------------------------------


----------------------
SHARK INTEGRAL PACKAGE
----------------------

Number of atoms                             ...     23
Number of basis functions                   ...    276
Number of shells                            ...    144
Maximum angular momentum                    ...      2
Integral batch strategy                     ... SHARK/LIBINT Hybrid
RI-J (if used) integral strategy            ... SPLIT-RIJ (Revised 2003 algorithm where possible)
Printlevel                                  ...      1
Contraction scheme used                     ... SEGMENTED contraction
Prescreening option                         ... SCHWARTZ
   Thresh                                   ... 2.500e-11
   Tcut                                     ... 2.500e-12
   Tpresel                                  ... 2.500e-12 
Coulomb Range Separation                    ... NOT USED
Exchange Range Separation                   ... NOT USED
Multipole approximations                    ... NOT USED
Finite Nucleus Model                        ... NOT USED
CABS basis                                  ... NOT available
Auxiliary Coulomb fitting basis             ... AVAILABLE
   # of basis functions in Aux-J            ...    426
   # of shells in Aux-J                     ...    188
   Maximum angular momentum in Aux-J        ...      2
Auxiliary J/K fitting basis                 ... NOT available
Auxiliary Correlation fitting basis         ... NOT available
Auxiliary 'external' fitting basis          ... NOT available

Checking pre-screening integrals            ... done (  0.0 sec) Dimension = 144
Check shell pair data                       ... done (  0.0 sec)
Shell pair information
Shell pair cut-off parameter TPreSel        ...   2.5e-12
Total number of shell pairs                 ...     10440
Shell pairs after pre-screening             ...      9086
Total number of primitive shell pairs       ...     37972
Primitive shell pairs kept                  ...     22559
          la=0 lb=0:   3572 shell pairs
          la=1 lb=0:   3047 shell pairs
          la=1 lb=1:    643 shell pairs
          la=2 lb=0:   1198 shell pairs
          la=2 lb=1:    514 shell pairs
          la=2 lb=2:    112 shell pairs

Calculating one electron integrals          ... done (  0.0 sec)
Calculating RI/J V-Matrix + Cholesky decomp.... done (  0.0 sec)
Calculating Nuclear repulsion               ... done (  0.0 sec) ENN=    729.884769969316 Eh

Diagonalization of the overlap matrix:
Smallest eigenvalue                        ... 2.860e-05
Time for diagonalization                   ...    0.005 sec
Threshold for overlap eigenvalues          ... 1.000e-07
Number of eigenvalues below threshold      ... 0
Time for construction of square roots      ...    0.003 sec
Total time needed                          ...    0.009 sec

-------------------
DFT GRID GENERATION
-------------------

General Integration Accuracy     IntAcc      ... 4.959
Radial Grid Type                 RadialGrid  ... OptM3 with GC (2021)
Angular Grid (max. ang.)         AngularGrid ... 6 (Lebedev-590)
Angular grid pruning method      GridPruning ... 4 (adaptive)
Weight generation scheme         WeightScheme... mBecke (2022)
Basis function cutoff            BFCut       ... 1.0000e-11
Integration weight cutoff        WCut        ... 1.0000e-14
Partially contracted basis set               ... off
Rotationally invariant grid construction     ... off
Angular grids for H and He will be reduced by one unit
Diffuse basis detected: some atoms will have their outermost
                        angular grid increased by 1.

Total number of grid points                  ...   267681
Total number of batches                      ...     4194
Average number of points per batch           ...       63
Average number of grid points per atom       ...    11638
Initializing property integral containers    ... done (  0.0 sec)

SHARK setup successfully completed in   1.9 seconds

Maximum memory used throughout the entire STARTUP-calculation: 57.9 MB


           ************************************************************
           *        Program running with 16 parallel MPI-processes    *
           *              working on a common directory               *
           ************************************************************
-------------------------------------------------------------------------------
                                 ORCA GUESS
                   Start orbitals & Density for SCF / CASSCF
-------------------------------------------------------------------------------

------------
SCF SETTINGS
------------
Hamiltonian:
 Density Functional     Method          .... DFT(GTOs)
 Exchange Functional    Exchange        .... B973C
 Correlation Functional Correlation     .... B973C
 Gradients option       PostSCFGGA      .... off
 RI-approximation to the Coulomb term is turned on
   Number of AuxJ basis functions       .... 426


General Settings:
 Integral files         IntName         .... m1_00_Vitamin_B6-QM3_002-B97-3C-TZ
 Hartree-Fock type      HFTyp           .... RHF
 Total Charge           Charge          ....    0
 Multiplicity           Mult            ....    1
 Number of Electrons    NEL             ....   90
 Basis Dimension        Dim             ....  276
 Nuclear Repulsion      ENuc            ....    729.8847699693 Eh

Convergence Acceleration:
 AO-DIIS                CNVDIIS         .... on
   Start iteration      DIISMaxIt       ....    12
   Startup error        DIISStart       ....  0.200000
   # of expansion vecs  DIISMaxEq       ....     5
   Bias factor          DIISBfac        ....   1.050
   Max. coefficient     DIISMaxC        ....  10.000
 MO-DIIS                CNVKDIIS        .... off
 Trust-Rad. Augm. Hess. CNVTRAH         .... off
 SOSCF                  CNVSOSCF        .... on
   Start iteration      SOSCFMaxIt      ....   150
   Startup grad/error   SOSCFStart      ....  0.003300
   Hessian update       SOSCFHessUp     .... L-BFGS
 Level Shifting         CNVShift        .... on
   Level shift para.    LevelShift      ....    0.2500
   Turn off err/grad.   ShiftErr        ....    0.0010
 Zerner damping         CNVZerner       .... off
 Static damping         CNVDamp         .... on
   Fraction old density DampFac         ....    0.7000
   Max. Damping (<1)    DampMax         ....    0.9800
   Min. Damping (>=0)   DampMin         ....    0.0000
   Turn off err/grad.   DampErr         ....    0.1000

SCF Procedure:
 Maximum # iterations   MaxIter         ....   800
 SCF integral mode      SCFMode         .... Direct
   Integral package                     .... SHARK and LIBINT hybrid scheme
 Reset frequency        DirectResetFreq ....    20
 Integral Threshold     Thresh          ....  2.500e-11 Eh
 Primitive CutOff       TCut            ....  2.500e-12 Eh

Convergence Tolerance:
 Convergence Check Mode ConvCheckMode   .... Total+1el-Energy
 Convergence forced     ConvForced      .... 0
 Energy Change          TolE            ....  1.000e-08 Eh
 1-El. energy change                    ....  1.000e-05 Eh
 Orbital Gradient       TolG            ....  1.000e-05
 Orbital Rotation angle TolX            ....  1.000e-05
 DIIS Error             TolErr          ....  5.000e-07

--------------------------------
INITIAL GUESS: MINIMAL BASIS EHT
--------------------------------
The minimal basis has 71 functions
EHT matrix was diagonalized
Basis set overlap was calculated now projecting the orbitals
Using GuessMode=FMatrix for the initial guess
C*T matrix was formed
Effective Fockian was calculated
Effective Fockian was diagonalized
Initial density was built
                      ------------------
                      INITIAL GUESS DONE
                      ------------------
             **** ENERGY FILE WAS UPDATED (m1_00_Vitamin_B6-QM3_002-B97-3C-TZ.en.tmp) ****
Finished Guess after   0.1 sec
Maximum memory used throughout the entire GUESS-calculation: 16.1 MB


           ************************************************************
           *        Program running with 16 parallel MPI-processes    *
           *              working on a common directory               *
           ************************************************************

-------------------------------------------------------------------------------------------
                                      ORCA LEAN-SCF
                              memory conserving SCF solver
-------------------------------------------------------------------------------------------

----------------------------------------D-I-I-S--------------------------------------------
Iteration    Energy (Eh)           Delta-E    RMSDP     MaxDP     DIISErr   Damp  Time(sec)
-------------------------------------------------------------------------------------------
               ***  Starting incremental Fock matrix formation  ***
    1    -589.6115142963093376     0.00e+00  7.63e-03  1.79e-01  4.65e-01  0.700   0.3
Warning: op=0 Small HOMO/LUMO gap (   0.085) - skipping pre-diagonalization
         Will do a full diagonalization
    2    -590.2888454298644092    -6.77e-01  6.86e-03  3.80e-01  3.28e-01  0.700   0.3
    3    -590.6533355250468276    -3.64e-01  3.52e-03  8.20e-02  2.30e-01  0.700   0.3
                               ***Turning on AO-DIIS***
    4    -590.9042959231284158    -2.51e-01  2.63e-03  1.28e-01  1.60e-01  0.700   0.3
    5    -591.0810168619874503    -1.77e-01  1.87e-03  9.51e-02  1.11e-01  0.700   0.3
    6    -591.2058738877495898    -1.25e-01  1.23e-03  4.60e-02  7.81e-02  0.700   0.3
    7    -591.2947321613909253    -8.89e-02  2.82e-03  6.14e-02  5.49e-02  0.000   0.3
    8    -591.4998284602532976    -2.05e-01  5.11e-04  2.83e-02  1.98e-02  0.000   0.3
                              *** Initializing SOSCF ***
---------------------------------------S-O-S-C-F--------------------------------------
Iteration    Energy (Eh)           Delta-E    RMSDP     MaxDP     MaxGrad    Time(sec)
--------------------------------------------------------------------------------------
    9    -591.5017542927893146    -1.93e-03  7.68e-05  3.36e-03  2.68e-03     0.3
               *** Restarting incremental Fock matrix formation ***
   10    -591.5017832246252283    -2.89e-05  7.99e-05  3.78e-03  2.09e-04     0.3
   11    -591.5017653539417779     1.79e-05  5.84e-05  2.09e-03  5.73e-04     0.3
   12    -591.5017898085244497    -2.45e-05  2.95e-05  1.13e-03  1.25e-04     0.2
   13    -591.5017875000197591     2.31e-06  2.21e-05  1.21e-03  3.39e-04     0.2
   14    -591.5017903988638182    -2.90e-06  1.06e-05  7.51e-04  3.54e-05     0.2
   15    -591.5017902973428363     1.02e-07  5.80e-06  3.70e-04  4.13e-05     0.2
   16    -591.5017904545128431    -1.57e-07  5.44e-06  1.98e-04  2.94e-06     0.2
   17    -591.5017904458874227     8.63e-09  2.62e-06  1.67e-04  5.19e-06     0.2
                 **** Energy Check signals convergence ****

               *****************************************************
               *                     SUCCESS                       *
               *           SCF CONVERGED AFTER  17 CYCLES          *
               *****************************************************

             **** ENERGY FILE WAS UPDATED (m1_00_Vitamin_B6-QM3_002-B97-3C-TZ.en.tmp) ****

----------------
TOTAL SCF ENERGY
----------------

Total Energy       :       -591.50179044588742 Eh          -16095.58200 eV

Components:
Nuclear Repulsion  :        729.88476996931570 Eh           19861.17431 eV
Electronic Energy  :      -1321.38656041520312 Eh          -35956.75632 eV
One Electron Energy:      -2254.52402226648746 Eh          -61348.71755 eV
Two Electron Energy:        933.13746185128434 Eh           25391.96124 eV

Virial components:
Potential Energy   :      -1180.96696977037345 Eh          -32135.74500 eV
Kinetic Energy     :        589.46517932448603 Eh           16040.16300 eV
Virial Ratio       :          2.00345501514396

DFT components:
N(Alpha)           :       45.000002432443 electrons
N(Beta)            :       45.000002432443 electrons
N(Total)           :       90.000004864886 electrons
E(XC)              :      -79.836873773442 Eh       

---------------
SCF CONVERGENCE
---------------

  Last Energy change         ...   -8.6254e-09  Tolerance :   1.0000e-08
  Last MAX-Density change    ...    1.6687e-04  Tolerance :   1.0000e-07
  Last RMS-Density change    ...    2.6232e-06  Tolerance :   5.0000e-09
  Last DIIS Error            ...    2.6775e-03  Tolerance :   5.0000e-07
  Last Orbital Gradient      ...    5.1924e-06  Tolerance :   1.0000e-05
  Last Orbital Rotation      ...    8.9582e-06  Tolerance :   1.0000e-05


----------------
ORBITAL ENERGIES
----------------

  NO   OCC          E(Eh)            E(eV) 
   0   2.0000     -18.776914      -510.9458 
   1   2.0000     -18.771703      -510.8040 
   2   2.0000     -18.761603      -510.5292 
   3   2.0000     -13.976994      -380.3333 
   4   2.0000      -9.956001      -270.9166 
   5   2.0000      -9.953970      -270.8613 
   6   2.0000      -9.952672      -270.8260 
   7   2.0000      -9.925382      -270.0834 
   8   2.0000      -9.916107      -269.8310 
   9   2.0000      -9.907977      -269.6098 
  10   2.0000      -9.905031      -269.5296 
  11   2.0000      -9.878126      -268.7975 
  12   2.0000      -0.993278       -27.0285 
  13   2.0000      -0.970249       -26.4018 
  14   2.0000      -0.961062       -26.1518 
  15   2.0000      -0.866056       -23.5666 
  16   2.0000      -0.755525       -20.5589 
  17   2.0000      -0.712944       -19.4002 
  18   2.0000      -0.670594       -18.2478 
  19   2.0000      -0.643866       -17.5205 
  20   2.0000      -0.609367       -16.5817 
  21   2.0000      -0.574545       -15.6342 
  22   2.0000      -0.538360       -14.6495 
  23   2.0000      -0.520809       -14.1719 
  24   2.0000      -0.487648       -13.2696 
  25   2.0000      -0.465291       -12.6612 
  26   2.0000      -0.446724       -12.1560 
  27   2.0000      -0.435406       -11.8480 
  28   2.0000      -0.421192       -11.4612 
  29   2.0000      -0.408424       -11.1138 
  30   2.0000      -0.398712       -10.8495 
  31   2.0000      -0.389132       -10.5888 
  32   2.0000      -0.380115       -10.3434 
  33   2.0000      -0.357775        -9.7355 
  34   2.0000      -0.342308        -9.3147 
  35   2.0000      -0.335997        -9.1429 
  36   2.0000      -0.328377        -8.9356 
  37   2.0000      -0.318098        -8.6559 
  38   2.0000      -0.310257        -8.4425 
  39   2.0000      -0.303937        -8.2706 
  40   2.0000      -0.266794        -7.2598 
  41   2.0000      -0.253010        -6.8847 
  42   2.0000      -0.237059        -6.4507 
  43   2.0000      -0.208437        -5.6719 
  44   2.0000      -0.201757        -5.4901 
  45   0.0000      -0.057939        -1.5766 
  46   0.0000      -0.032886        -0.8949 
  47   0.0000      -0.002698        -0.0734 
  48   0.0000       0.023177         0.6307 
  49   0.0000       0.040207         1.0941 
  50   0.0000       0.054029         1.4702 
  51   0.0000       0.060687         1.6514 
  52   0.0000       0.066962         1.8221 
  53   0.0000       0.084583         2.3016 
  54   0.0000       0.094618         2.5747 
  55   0.0000       0.096572         2.6278 
*Only the first 10 virtual orbitals were printed.

                    ********************************
                    * MULLIKEN POPULATION ANALYSIS *
                    ********************************

-----------------------
MULLIKEN ATOMIC CHARGES
-----------------------
   0 O :   -0.551022
   1 O :   -0.620915
   2 O :   -0.561429
   3 N :   -0.044276
   4 C :   -0.006825
   5 C :    0.140557
   6 C :    0.467437
   7 C :   -0.055289
   8 C :   -0.305695
   9 C :   -0.444189
  10 C :   -0.216982
  11 C :   -0.558122
  12 H :    0.179607
  13 H :    0.222794
  14 H :    0.198285
  15 H :    0.177644
  16 H :    0.142640
  17 H :    0.171842
  18 H :    0.192273
  19 H :    0.171218
  20 H :    0.428288
  21 H :    0.439311
  22 H :    0.432850
Sum of atomic charges:    0.0000000

--------------------------------
MULLIKEN REDUCED ORBITAL CHARGES
--------------------------------
  0 O s       :     3.786949  s :     3.786949
      pz      :     1.500484  p :     4.719593
      px      :     1.420771
      py      :     1.798337
      dz2     :     0.013842  d :     0.044480
      dxz     :     0.006488
      dyz     :     0.006136
      dx2y2   :     0.010330
      dxy     :     0.007684

  1 O s       :     3.816905  s :     3.816905
      pz      :     1.780128  p :     4.757525
      px      :     1.531724
      py      :     1.445672
      dz2     :     0.012924  d :     0.046484
      dxz     :     0.005909
      dyz     :     0.007553
      dx2y2   :     0.015093
      dxy     :     0.005005

  2 O s       :     3.812337  s :     3.812337
      pz      :     1.533716  p :     4.713169
      px      :     1.882408
      py      :     1.297045
      dz2     :     0.009910  d :     0.035922
      dxz     :     0.002161
      dyz     :     0.004093
      dx2y2   :     0.012941
      dxy     :     0.006817

  3 N s       :     3.443603  s :     3.443603
      pz      :     1.375196  p :     3.554472
      px      :     0.991206
      py      :     1.188070
      dz2     :     0.008982  d :     0.046201
      dxz     :     0.014647
      dyz     :     0.005583
      dx2y2   :     0.007377
      dxy     :     0.009613

  4 C s       :     3.211688  s :     3.211688
      pz      :     0.869266  p :     2.748596
      px      :     0.867635
      py      :     1.011694
      dz2     :     0.010004  d :     0.046541
      dxz     :     0.014643
      dyz     :     0.005821
      dx2y2   :     0.007671
      dxy     :     0.008402

  5 C s       :     3.069816  s :     3.069816
      pz      :     0.866831  p :     2.741873
      px      :     0.880622
      py      :     0.994420
      dz2     :     0.011082  d :     0.047754
      dxz     :     0.014226
      dyz     :     0.006897
      dx2y2   :     0.008312
      dxy     :     0.007237

  6 C s       :     2.994269  s :     2.994269
      pz      :     0.879402  p :     2.464650
      px      :     0.713790
      py      :     0.871458
      dz2     :     0.014293  d :     0.073643
      dxz     :     0.020423
      dyz     :     0.007303
      dx2y2   :     0.014277
      dxy     :     0.017346

  7 C s       :     3.191582  s :     3.191582
      pz      :     0.971800  p :     2.799973
      px      :     0.882823
      py      :     0.945350
      dz2     :     0.013288  d :     0.063734
      dxz     :     0.020805
      dyz     :     0.007682
      dx2y2   :     0.011212
      dxy     :     0.010748

  8 C s       :     3.315880  s :     3.315880
      pz      :     0.994089  p :     2.924235
      px      :     0.924143
      py      :     1.006003
      dz2     :     0.012404  d :     0.065580
      dxz     :     0.019367
      dyz     :     0.008911
      dx2y2   :     0.015108
      dxy     :     0.009791

  9 C s       :     3.387463  s :     3.387463
      pz      :     0.875051  p :     2.990525
      px      :     1.064274
      py      :     1.051200
      dz2     :     0.013680  d :     0.066200
      dxz     :     0.019707
      dyz     :     0.012854
      dx2y2   :     0.013575
      dxy     :     0.006384

 10 C s       :     3.209598  s :     3.209598
      pz      :     0.966402  p :     2.949849
      px      :     0.989609
      py      :     0.993838
      dz2     :     0.016950  d :     0.057536
      dxz     :     0.015139
      dyz     :     0.008785
      dx2y2   :     0.009638
      dxy     :     0.007024

 11 C s       :     3.270071  s :     3.270071
      pz      :     1.067020  p :     3.251370
      px      :     1.066076
      py      :     1.118273
      dz2     :     0.006054  d :     0.036681
      dxz     :     0.010444
      dyz     :     0.006357
      dx2y2   :     0.004328
      dxy     :     0.009498

 12 H s       :     0.820393  s :     0.820393

 13 H s       :     0.777206  s :     0.777206

 14 H s       :     0.801715  s :     0.801715

 15 H s       :     0.822356  s :     0.822356

 16 H s       :     0.857360  s :     0.857360

 17 H s       :     0.828158  s :     0.828158

 18 H s       :     0.807727  s :     0.807727

 19 H s       :     0.828782  s :     0.828782

 20 H s       :     0.571712  s :     0.571712

 21 H s       :     0.560689  s :     0.560689

 22 H s       :     0.567150  s :     0.567150



                     *******************************
                     * LOEWDIN POPULATION ANALYSIS *
                     *******************************

----------------------
LOEWDIN ATOMIC CHARGES
----------------------
   0 O :   -0.625100
   1 O :   -0.724235
   2 O :   -0.750541
   3 N :   -0.166105
   4 C :   -0.008768
   5 C :   -0.063100
   6 C :    0.197339
   7 C :    0.030048
   8 C :    0.040422
   9 C :    0.021687
  10 C :   -0.094549
  11 C :   -0.397047
  12 H :    0.192906
  13 H :    0.201772
  14 H :    0.185077
  15 H :    0.173756
  16 H :    0.156765
  17 H :    0.173336
  18 H :    0.167588
  19 H :    0.172974
  20 H :    0.385726
  21 H :    0.368938
  22 H :    0.361110

-------------------------------
LOEWDIN REDUCED ORBITAL CHARGES
-------------------------------
  0 O s       :     3.507116  s :     3.507116
      pz      :     1.491782  p :     4.776630
      px      :     1.508494
      py      :     1.776355
      dz2     :     0.089294  d :     0.341353
      dxz     :     0.079561
      dyz     :     0.028494
      dx2y2   :     0.069810
      dxy     :     0.074194

  1 O s       :     3.545303  s :     3.545303
      pz      :     1.734214  p :     4.831591
      px      :     1.599196
      py      :     1.498181
      dz2     :     0.063748  d :     0.347341
      dxz     :     0.080687
      dyz     :     0.047950
      dx2y2   :     0.092550
      dxy     :     0.062406

  2 O s       :     3.561517  s :     3.561517
      pz      :     1.604791  p :     4.855962
      px      :     1.878969
      py      :     1.372202
      dz2     :     0.087828  d :     0.333062
      dxz     :     0.071930
      dyz     :     0.066431
      dx2y2   :     0.064722
      dxy     :     0.042151

  3 N s       :     3.216205  s :     3.216205
      pz      :     1.466156  p :     3.863654
      px      :     1.193035
      py      :     1.204463
      dz2     :     0.014938  d :     0.086245
      dxz     :     0.028509
      dyz     :     0.007324
      dx2y2   :     0.016478
      dxy     :     0.018997

  4 C s       :     2.832973  s :     2.832973
      pz      :     1.025837  p :     3.080119
      px      :     1.052252
      py      :     1.002030
      dz2     :     0.020969  d :     0.095675
      dxz     :     0.030513
      dyz     :     0.011760
      dx2y2   :     0.016192
      dxy     :     0.016242

  5 C s       :     2.852667  s :     2.852667
      pz      :     1.054696  p :     3.111118
      px      :     1.058393
      py      :     0.998028
      dz2     :     0.023230  d :     0.099315
      dxz     :     0.031061
      dyz     :     0.013497
      dx2y2   :     0.017087
      dxy     :     0.014439

  6 C s       :     2.773536  s :     2.773536
      pz      :     1.030881  p :     2.865869
      px      :     0.912524
      py      :     0.922464
      dz2     :     0.031515  d :     0.163257
      dxz     :     0.046456
      dyz     :     0.014817
      dx2y2   :     0.034841
      dxy     :     0.035627

  7 C s       :     2.830872  s :     2.830872
      pz      :     1.038023  p :     3.005170
      px      :     1.018863
      py      :     0.948283
      dz2     :     0.026949  d :     0.133911
      dxz     :     0.047092
      dyz     :     0.015337
      dx2y2   :     0.023320
      dxy     :     0.021213

  8 C s       :     2.851162  s :     2.851162
      pz      :     1.007854  p :     2.979091
      px      :     0.947500
      py      :     1.023737
      dz2     :     0.023860  d :     0.129324
      dxz     :     0.037958
      dyz     :     0.017173
      dx2y2   :     0.030003
      dxy     :     0.020330

  9 C s       :     2.858387  s :     2.858387
      pz      :     0.927313  p :     2.989702
      px      :     1.045143
      py      :     1.017246
      dz2     :     0.028577  d :     0.130224
      dxz     :     0.040227
      dyz     :     0.027096
      dx2y2   :     0.023764
      dxy     :     0.010560

 10 C s       :     2.881642  s :     2.881642
      pz      :     1.037337  p :     3.095480
      px      :     1.050720
      py      :     1.007423
      dz2     :     0.036824  d :     0.117427
      dxz     :     0.033274
      dyz     :     0.018300
      dx2y2   :     0.017077
      dxy     :     0.011953

 11 C s       :     2.976608  s :     2.976608
      pz      :     1.104209  p :     3.360588
      px      :     1.111333
      py      :     1.145045
      dz2     :     0.010006  d :     0.059851
      dxz     :     0.018005
      dyz     :     0.010082
      dx2y2   :     0.006670
      dxy     :     0.015088

 12 H s       :     0.807094  s :     0.807094

 13 H s       :     0.798228  s :     0.798228

 14 H s       :     0.814923  s :     0.814923

 15 H s       :     0.826244  s :     0.826244

 16 H s       :     0.843235  s :     0.843235

 17 H s       :     0.826664  s :     0.826664

 18 H s       :     0.832412  s :     0.832412

 19 H s       :     0.827026  s :     0.827026

 20 H s       :     0.614274  s :     0.614274

 21 H s       :     0.631062  s :     0.631062

 22 H s       :     0.638890  s :     0.638890



                      *****************************
                      * MAYER POPULATION ANALYSIS *
                      *****************************

  NA   - Mulliken gross atomic population
  ZA   - Total nuclear charge
  QA   - Mulliken gross atomic charge
  VA   - Mayer's total valence
  BVA  - Mayer's bonded valence
  FA   - Mayer's free valence

  ATOM       NA         ZA         QA         VA         BVA        FA
  0 O      8.5510     8.0000    -0.5510     1.9429     1.9429     0.0000
  1 O      8.6209     8.0000    -0.6209     1.8206     1.8206    -0.0000
  2 O      8.5614     8.0000    -0.5614     1.7210     1.7210     0.0000
  3 N      7.0443     7.0000    -0.0443     3.2188     3.2188     0.0000
  4 C      6.0068     6.0000    -0.0068     3.4766     3.4766    -0.0000
  5 C      5.8594     6.0000     0.1406     3.3122     3.3122    -0.0000
  6 C      5.5326     6.0000     0.4674     3.5630     3.5630     0.0000
  7 C      6.0553     6.0000    -0.0553     3.8561     3.8561     0.0000
  8 C      6.3057     6.0000    -0.3057     3.7034     3.7034     0.0000
  9 C      6.4442     6.0000    -0.4442     3.8409     3.8409    -0.0000
 10 C      6.2170     6.0000    -0.2170     4.0066     4.0066    -0.0000
 11 C      6.5581     6.0000    -0.5581     3.7264     3.7264    -0.0000
 12 H      0.8204     1.0000     0.1796     0.9356     0.9356     0.0000
 13 H      0.7772     1.0000     0.2228     0.9370     0.9370     0.0000
 14 H      0.8017     1.0000     0.1983     0.9176     0.9176    -0.0000
 15 H      0.8224     1.0000     0.1776     0.9379     0.9379    -0.0000
 16 H      0.8574     1.0000     0.1426     0.9533     0.9533    -0.0000
 17 H      0.8282     1.0000     0.1718     0.9508     0.9508     0.0000
 18 H      0.8077     1.0000     0.1923     0.9599     0.9599    -0.0000
 19 H      0.8288     1.0000     0.1712     0.9514     0.9514    -0.0000
 20 H      0.5717     1.0000     0.4283     0.8315     0.8315     0.0000
 21 H      0.5607     1.0000     0.4393     0.7875     0.7875     0.0000
 22 H      0.5672     1.0000     0.4328     0.7885     0.7885     0.0000

  Mayer bond orders larger than 0.100000
B(  0-O ,  6-C ) :   1.1002 B(  0-O , 20-H ) :   0.6754 B(  1-O ,  8-C ) :   0.9930 
B(  1-O , 20-H ) :   0.1545 B(  1-O , 21-H ) :   0.7582 B(  2-O ,  9-C ) :   0.9902 
B(  2-O , 22-H ) :   0.7669 B(  3-N ,  7-C ) :   1.6621 B(  3-N , 10-C ) :   1.5165 
B(  4-C ,  5-C ) :   1.2997 B(  4-C ,  6-C ) :   1.3314 B(  4-C ,  8-C ) :   0.8834 
B(  5-C ,  9-C ) :   0.8056 B(  5-C , 10-C ) :   1.3619 B(  6-C ,  7-C ) :   1.3240 
B(  6-C ,  8-C ) :  -0.1073 B(  7-C , 11-C ) :   0.8750 B(  8-C , 12-H ) :   0.9435 
B(  8-C , 13-H ) :   0.9437 B(  9-C , 14-H ) :   0.9677 B(  9-C , 15-H ) :   0.9693 
B( 10-C , 16-H ) :   0.9561 B( 11-C , 17-H ) :   0.9516 B( 11-C , 18-H ) :   0.9731 
B( 11-C , 19-H ) :   0.9496 


------------------
HIRSHFELD ANALYSIS
------------------

Total integrated alpha density =     45.000002433
Total integrated beta density  =     45.000002433

  ATOM     CHARGE      SPIN    
   0 O   -0.192145    0.000000
   1 O   -0.199239    0.000000
   2 O   -0.233520    0.000000
   3 N   -0.193056    0.000000
   4 C   -0.028296    0.000000
   5 C   -0.025652    0.000000
   6 C    0.068854    0.000000
   7 C    0.057127    0.000000
   8 C    0.034932    0.000000
   9 C    0.035559    0.000000
  10 C    0.000098    0.000000
  11 C   -0.078524    0.000000
  12 H    0.042016    0.000000
  13 H    0.033841    0.000000
  14 H    0.039889    0.000000
  15 H    0.030265    0.000000
  16 H    0.033898    0.000000
  17 H    0.035751    0.000000
  18 H    0.035697    0.000000
  19 H    0.037011    0.000000
  20 H    0.134991    0.000000
  21 H    0.171597    0.000000
  22 H    0.158901    0.000000

  TOTAL  -0.000005    0.000000

-------
TIMINGS
-------

Total SCF time: 0 days 0 hours 0 min 5 sec 

Total time                  ....       5.079 sec
Sum of individual times     ....       5.017 sec  ( 98.8%)

SCF preparation             ....       0.128 sec  (  2.5%)
Fock matrix formation       ....       4.118 sec  ( 81.1%)
  Startup                   ....       0.012 sec  (  0.3% of F)
  Split-RI-J                ....       0.661 sec  ( 16.0% of F)
  XC integration            ....       3.237 sec  ( 78.6% of F)
    XC Preparation          ....       0.000 sec  (  0.0% of XC)
    Basis function eval.    ....       0.828 sec  ( 25.6% of XC)
    Density eval.           ....       0.686 sec  ( 21.2% of XC)
    XC-Functional eval.     ....       0.104 sec  (  3.2% of XC)
    XC-Potential eval.      ....       0.668 sec  ( 20.6% of XC)
Diagonalization             ....       0.000 sec  (  0.0%)
Density matrix formation    ....       0.037 sec  (  0.7%)
Total Energy calculation    ....       0.022 sec  (  0.4%)
Population analysis         ....       0.374 sec  (  7.4%)
Orbital Transformation      ....       0.035 sec  (  0.7%)
Orbital Orthonormalization  ....       0.000 sec  (  0.0%)
DIIS solution               ....       0.203 sec  (  4.0%)
SOSCF solution              ....       0.099 sec  (  1.9%)
Finished LeanSCF after   5.1 sec

Maximum memory used throughout the entire LEANSCF-calculation: 43.4 MB


           ************************************************************
           *        Program running with 16 parallel MPI-processes    *
           *              working on a common directory               *
           ************************************************************

------------------------------------------------------------------------------
                         ORCA PROPERTY INTEGRAL CALCULATIONS
------------------------------------------------------------------------------

GBWName                                   ... m1_00_Vitamin_B6-QM3_002-B97-3C-TZ.gbw
Number of atoms                           ...     23
Number of basis functions                 ...    276
Max core memory                           ...   6000 MB

Dipole integrals                          ... YES
Quadrupole integrals                      ...  NO
Linear momentum integrals                 ...  NO
Angular momentum integrals                ...  NO
Higher moments length integrals           ...  NO
Higher moments velocity integrals         ...  NO
Kinetic energy integrals                  ...  NO
GIAO right hand sides                     ...  NO
GIAO dipole derivative integrals          ...  NO
SOC integrals                             ...  NO
EPR diamagnetic integrals (GIAO)          ...  NO
EPR gauge integrals                       ...  NO
Field gradient integrals                  ...  NO (   0 nuclei)
Spin-dipole/Fermi contact integrals       ...  NO (   0 nuclei)
Contact density integrals                 ...  NO (   0 nuclei)
Nucleus-orbit integrals                   ...  NO (   0 nuclei)
Geometric perturbations                   ...  NO (  23 nuclei)

Choice of electric origin   ... Center of mass
Position of electric origin ... (  0.0971,  0.0068, -0.0534) 
Choice of magnetic origin   ... GIAO
Position of magnetic origin ... (  0.0000,  0.0000,  0.0000) 

Calculating integrals                     ... Electric Dipole (Length)     done (  0.0 sec)

Property integrals calculated in   0.0 sec

Maximum memory used throughout the entire PROPINT-calculation: 16.7 MB


-------------------------------------------------------------------------------
                          DFT DISPERSION CORRECTION                            
                                                                               
                              DFTD3 V3.1  Rev 1                                
                          USING Becke-Johnson damping                          
-------------------------------------------------------------------------------
The B97-3c composite method is recognized
Using three-body term ABC
Active option DFTDOPT                   ...         4   

molecular C6(AA) [au] = 5021.291227 


            DFT-D V3
 parameters
 s6 scaling factor         :     1.0000 
 a1 scaling factor         :     0.3700 
 s8 scaling factor         :     1.5000 
 a2 scaling factor         :     4.1000 
 Damping factor alpha9(ATM):    16.0000 
 ad hoc parameters k1-k3   :    16.0000     1.3333    -4.0000 

 Edisp/kcal,au: -34.648450797748  -0.055215815113 
 E6   /kcal   : -17.673479479 
 E8   /kcal   : -17.037867182 
 E6(ABC)      :   0.062895864 
 % E8         :  49.173532410 
 % E6(ABC)    :  -0.181525762 

-------------------------   ----------------
Dispersion correction           -0.055215815
-------------------------   ----------------

------------------   -----------------
SRB correction            -0.068016083
------------------   -----------------

-------------------------   --------------------
FINAL SINGLE POINT ENERGY      -591.625022343601
-------------------------   --------------------



           ************************************************************
           *        Program running with 16 parallel MPI-processes    *
           *              working on a common directory               *
           ************************************************************
------------------------------------------------------------------------------
                         ORCA SCF GRADIENT CALCULATION
------------------------------------------------------------------------------

Nuc. rep. gradient        (SHARK) ... done (  0.0 sec)
HCore & Overlap gradient  (SHARK) ... done (  0.0 sec)
Split-RIJ-J gradient      (SHARK) ... done (  0.1 sec)
XC gradient                       ... done (  1.5 sec)
Dispersion correction             ... done (  0.0 sec)

-------------------
DISPERSION GRADIENT
-------------------

   1   O   :    0.000887619   -0.000240848   -0.000026654
   2   O   :    0.000473943   -0.000064218   -0.000734145
   3   O   :   -0.000625425    0.000390724   -0.000665617
   4   N   :   -0.000568185    0.000407875    0.000745379
   5   C   :    0.000319027   -0.000436199   -0.000168467
   6   C   :   -0.000888786    0.000065492    0.000188332
   7   C   :    0.000647568   -0.000153608    0.000240959
   8   C   :    0.000296248    0.000241768    0.000836670
   9   C   :    0.000523637   -0.000647078   -0.000789799
  10   C   :   -0.000980236    0.000012898   -0.000446438
  11   C   :   -0.000737662    0.000388978    0.000810155
  12   C   :    0.000492724    0.000200202    0.000774971
  13   H   :    0.000099397   -0.000559619   -0.000286098
  14   H   :    0.000062530   -0.000331130   -0.000477208
  15   H   :   -0.000508357   -0.000289798   -0.000209704
  16   H   :   -0.000462132   -0.000007208   -0.000116736
  17   H   :   -0.000395012    0.000206179    0.000342168
  18   H   :    0.000350987    0.000241297    0.000274413
  19   H   :    0.000148665    0.000118763    0.000364075
  20   H   :    0.000273659   -0.000106894    0.000408963
  21   H   :    0.000514546   -0.000094901   -0.000133268
  22   H   :    0.000307720    0.000221818   -0.000544936
  23   H   :   -0.000232474    0.000435507   -0.000387015

Difference to translation invariance:
           :    0.0000000000    0.0000000000   -0.0000000000

Difference to rotation invariance:
           :    0.0000000000    0.0000000000    0.0000000000

Norm of the Dispersion gradient    ...    0.0037862809
RMS gradient                       ...    0.0004558147
MAX gradient                       ...    0.0009802355
SRB correction                   ... done

------------------
CARTESIAN GRADIENT
------------------

   1   O   :   -0.006007257    0.001167436   -0.007623071
   2   O   :   -0.012132684    0.000372552    0.009316693
   3   O   :    0.002167812   -0.002426455    0.011358176
   4   N   :    0.004548354   -0.002209224   -0.002841464
   5   C   :    0.000184036    0.003839018    0.004253050
   6   C   :    0.005322051    0.001226678    0.001200977
   7   C   :    0.007248017   -0.003456359   -0.002494084
   8   C   :   -0.006459156    0.000369573   -0.002603510
   9   C   :    0.014059752    0.004204040   -0.006064839
  10   C   :   -0.000047980    0.002164060   -0.011607378
  11   C   :   -0.004265967    0.000225106   -0.002016711
  12   C   :    0.005150072   -0.000129370    0.002006085
  13   H   :   -0.000731677   -0.003212997    0.001725617
  14   H   :   -0.002756949    0.001855078    0.000855281
  15   H   :    0.000392880   -0.004649438    0.000715912
  16   H   :   -0.000998915    0.002078817    0.001109314
  17   H   :   -0.001366453    0.000322125    0.000493859
  18   H   :   -0.000190988    0.000942580   -0.001140284
  19   H   :   -0.000783568    0.000732549    0.001080711
  20   H   :   -0.000733707   -0.001431512   -0.000324901
  21   H   :   -0.002964159   -0.000745511    0.005905321
  22   H   :    0.000929051   -0.001279269   -0.001569543
  23   H   :   -0.000562569    0.000040523   -0.001735210

Difference to translation invariance:
           :    0.0000000000   -0.0000000000   -0.0000000000

Difference to rotation invariance:
           :   -0.0000045856   -0.0000163487    0.0000340885

Norm of the Cartesian gradient     ...    0.0353162998
RMS gradient                       ...    0.0042515829
MAX gradient                       ...    0.0140597521

-------
TIMINGS
-------

Total SCF gradient time     ....        1.737 sec

Densities                   ....       0.001 sec  (  0.1%)
One electron gradient       ....       0.034 sec  (  2.0%)
RI-J Coulomb gradient       ....       0.122 sec  (  7.0%)
XC gradient                 ....       1.522 sec  ( 87.6%)

Maximum memory used throughout the entire SCFGRAD-calculation: 51.7 MB
------------------------------------------------------------------------------
                         ORCA GEOMETRY RELAXATION STEP
------------------------------------------------------------------------------

Reading the OPT-File                    .... done
Getting information on internals        .... done
Copying old internal coords+grads       .... done
Making the new internal coordinates     .... (2022 redundants) done
Validating the new internal coordinates .... (2022 redundants) done
Calculating the B-matrix                .... done
Calculating the G,G- and P matrices     .... done
Transforming gradient to internals      .... done
Projecting the internal gradient        .... done
Number of atoms                         ....  23
Number of internal coordinates          .... 104
Current Energy                          ....  -591.625022344 Eh
Current gradient norm                   ....     0.035316300 Eh/bohr
Maximum allowed component of the step   ....  0.300
Current trust radius                    ....  0.300
Evaluating the initial hessian          ....  (Almloef) done
Projecting the Hessian                  .... done
Forming the augmented Hessian           .... done
Diagonalizing the augmented Hessian     .... done
Last element of RFO vector              ....  0.982187663
Lowest eigenvalues of augmented Hessian:
 -0.002918312  0.012518949  0.012891238  0.015221126  0.020334154
Length of the computed step             ....  0.191310306
The final length of the internal step   ....  0.191310306
Converting the step to Cartesian space:
 Initial RMS(Int)=    0.0187595189
Transforming coordinates:
 Iter   0:  RMS(Cart)=    0.0582073307 RMS(Int)=    0.0189914880
 Iter   5:  RMS(Cart)=    0.0000000183 RMS(Int)=    0.0000000138
done
Storing new coordinates                 .... done

                                .--------------------.
          ----------------------|Geometry convergence|-------------------------
          Item                value                   Tolerance       Converged
          ---------------------------------------------------------------------
          RMS gradient        0.0029330817            0.0000300000      NO
          MAX gradient        0.0125626900            0.0001000000      NO
          RMS step            0.0187595189            0.0020000000      NO
          MAX step            0.0533954457            0.0040000000      NO
          ........................................................
          Max(Bonds)      0.0144      Max(Angles)    1.26
          Max(Dihed)        3.06      Max(Improp)    0.00
          ---------------------------------------------------------------------

The optimization has not yet converged - more geometry cycles are needed


    ---------------------------------------------------------------------------
                         Redundant Internal Coordinates
                            (Angstroem and degrees)

        Definition                    Value    dE/dq     Step     New-Value
    ----------------------------------------------------------------------------
     1. B(C   5,C   4)                1.3928 -0.005605  0.0052    1.3980   
     2. B(C   6,O   0)                1.3473 -0.007543  0.0066    1.3539   
     3. B(C   6,C   4)                1.3865 -0.006127  0.0073    1.3938   
     4. B(C   7,C   6)                1.4033 -0.002004  0.0021    1.4054   
     5. B(C   7,N   3)                1.3261 -0.000843  0.0003    1.3264   
     6. B(C   8,C   4)                1.5018 -0.003084  0.0055    1.5073   
     7. B(C   8,O   1)                1.4158 -0.012563  0.0130    1.4289   
     8. B(C   9,C   5)                1.5054 -0.000372  0.0005    1.5059   
     9. B(C   9,O   2)                1.4172 -0.008798  0.0091    1.4263   
    10. B(C  10,C   5)                1.3832 -0.002295  0.0016    1.3847   
    11. B(C  10,N   3)                1.3372  0.002218 -0.0024    1.3348   
    12. B(C  11,C   7)                1.4998  0.003574 -0.0045    1.4953   
    13. B(H  12,C   8)                1.0963  0.003198 -0.0048    1.0915   
    14. B(H  13,C   8)                1.0869  0.001576 -0.0023    1.0846   
    15. B(H  14,C   9)                1.0954  0.004158 -0.0062    1.0892   
    16. B(H  15,C   9)                1.0965  0.001946 -0.0029    1.0936   
    17. B(H  16,C  10)                1.0870  0.001475 -0.0021    1.0848   
    18. B(H  17,C  11)                1.0908  0.000805 -0.0012    1.0897   
    19. B(H  18,C  11)                1.0872  0.001504 -0.0022    1.0850   
    20. B(H  19,C  11)                1.0911  0.000875 -0.0013    1.0899   
    21. B(H  20,O   1)                1.8470 -0.002642  0.0144    1.8614   
    22. B(H  20,O   0)                0.9690 -0.008279  0.0069    0.9759   
    23. B(H  21,O   1)                0.9633 -0.000777  0.0008    0.9640   
    24. B(H  22,O   2)                0.9631 -0.000328  0.0003    0.9634   
    25. A(C   6,O   0,H  20)          106.93 -0.000811    0.45    107.37   
    26. A(C   8,O   1,H  21)          108.36  0.002126   -0.34    108.03   
    27. A(C   9,O   2,H  22)          108.24  0.002729   -0.43    107.80   
    28. A(C   7,N   3,C  10)          119.55  0.002230   -0.39    119.16   
[...]
     35      -0.000183   0.000002  -0.000006
     36       0.001088   0.004345  -0.000276
     37       0.005747  -0.014268   0.000307
     38      -0.002755   0.002871  -0.000041
     39       0.009137   0.000016  -0.000722
     40       0.001333  -0.002215  -0.000090
     41      -0.000350   0.003872  -0.000746
     42      -0.000637   0.000208   0.000017
     43      -0.001910   0.000706   0.014121
     44      -0.001073   0.000146   0.007336
     45       0.000477  -0.000164  -0.000396
     46      -0.000246   0.000287   0.002047
     47      -0.000733  -0.000073  -0.002040
     48       0.000296  -0.000294   0.000283
     49      -0.000284   0.000150   0.000386
     50      -0.000465   0.000211  -0.000111
     51       0.000935   0.000076  -0.000081
     52       0.000112   0.000017  -0.000064
     53      -0.000616   0.000000   0.000037
     54      -0.001419  -0.000033   0.000025
     55       0.000910   0.000051  -0.000032
     56       0.001520   0.000120  -0.000064
     57       0.000617   0.000019  -0.000068
     58      -0.000602   0.000003  -0.000001
     59      -0.000270  -0.000005  -0.000046
     60      -0.180831   0.000719   0.000134
     61       0.144241  -0.000642  -0.000005
     62       0.970561  -0.019380   0.000155
     63       0.008283   0.142245  -0.002267
     64      -0.016007  -0.947879   0.016899
     65       0.010961   0.276493  -0.004954
     66       0.000029   0.001779   0.119390
     67       0.000016   0.016723   0.942117
     68       0.000762   0.005785   0.306067


-----------
IR SPECTRUM
-----------

 Mode   freq       eps      Int      T**2         TX        TY        TZ
       cm**-1   L/(mol*cm) km/mol    a.u.
----------------------------------------------------------------------------
  6:     75.56   0.000705    3.56  0.002913  ( 0.044960 -0.014219 -0.026250)
  7:     80.58   0.000241    1.22  0.000933  (-0.006726 -0.023227  0.018672)
  8:    101.43   0.000395    2.00  0.001216  (-0.005553 -0.003115  0.034280)
  9:    121.66   0.000350    1.77  0.000897  (-0.001059  0.029029 -0.007292)
 10:    129.16   0.001144    5.78  0.002765  (-0.005330  0.036224 -0.037737)
 11:    209.50   0.000530    2.68  0.000790  (-0.004253  0.025726  0.010469)
 12:    232.43   0.000407    2.06  0.000547  (-0.002024  0.002861  0.023122)
 13:    278.60   0.000563    2.84  0.000631  (-0.020879 -0.009531 -0.010185)
 14:    290.90   0.005353   27.05  0.005742  ( 0.072274 -0.019094  0.012419)
 15:    318.76   0.002491   12.59  0.002438  (-0.047008  0.014310 -0.004896)
 16:    347.42   0.016175   81.74  0.014529  (-0.114442  0.027078 -0.026436)
 17:    356.52   0.005033   25.44  0.004406  ( 0.027714 -0.017419  0.057742)
 18:    413.46   0.005250   26.53  0.003962  (-0.000447 -0.000186 -0.062944)
 19:    440.29   0.013781   69.64  0.009768  (-0.024322  0.003073 -0.095743)
 20:    495.02   0.002252   11.38  0.001420  (-0.022811  0.006198  0.029346)
 21:    524.33   0.000917    4.63  0.000546  ( 0.004838 -0.012338 -0.019238)
 22:    545.42   0.001215    6.14  0.000695  ( 0.003817 -0.016361  0.020320)
 23:    582.74   0.001605    8.11  0.000859  (-0.013486  0.025102  0.006873)
 24:    640.47   0.001313    6.63  0.000640  ( 0.021327  0.003618 -0.013103)
 25:    677.45   0.001717    8.68  0.000791  (-0.022095 -0.008508 -0.015181)
 26:    746.39   0.001199    6.06  0.000501  (-0.013942  0.017022 -0.004135)
 27:    763.45   0.007790   39.37  0.003184  (-0.022574  0.048695  0.017413)
 28:    778.06   0.008526   43.08  0.003419  ( 0.019584  0.052552  0.016560)
 29:    883.64   0.003610   18.24  0.001275  ( 0.005632  0.025880 -0.023943)
 30:    909.19   0.004385   22.16  0.001505  ( 0.029090  0.014100 -0.021453)
 31:    943.93   0.002432   12.29  0.000804  ( 0.001288 -0.022182  0.017615)
 32:    970.38   0.003533   17.85  0.001136  (-0.022900  0.010103 -0.022576)
 33:    989.11   0.010222   51.66  0.003225  (-0.051645 -0.012101  0.020285)
 34:   1002.06   0.021419  108.24  0.006670  ( 0.001053 -0.033727  0.074376)
 35:   1028.36   0.002298   11.61  0.000697  (-0.019084 -0.007284 -0.016736)
 36:   1047.40   0.000420    2.12  0.000125  (-0.001955 -0.009116  0.006172)
 37:   1087.19   0.003203   16.19  0.000919  (-0.023399 -0.001989  0.019182)
 38:   1188.87   0.002892   14.62  0.000759  (-0.007059  0.019225 -0.018432)
 39:   1205.86   0.002504   12.65  0.000648  ( 0.020561  0.014615  0.003404)
 40:   1250.50   0.019475   98.42  0.004860  (-0.065336  0.015720  0.018552)
 41:   1261.63   0.004702   23.76  0.001163  ( 0.019622 -0.007017  0.026996)
 42:   1300.30   0.000832    4.20  0.000200  ( 0.000184  0.009777  0.010196)
 43:   1317.90   0.003409   17.23  0.000807  ( 0.019551  0.004317  0.020159)
 44:   1360.61   0.004039   20.41  0.000926  ( 0.024608 -0.005724  0.016976)
 45:   1373.15   0.029587  149.52  0.006724  (-0.079538  0.011453 -0.016327)
 46:   1386.49   0.003250   16.43  0.000732  (-0.026239  0.003794 -0.005355)
 47:   1395.43   0.006055   30.60  0.001354  ( 0.016775  0.001197 -0.032730)
 48:   1407.62   0.005243   26.50  0.001162  (-0.023484  0.001032 -0.024694)
 49:   1409.80   0.010587   53.50  0.002343  (-0.024678  0.017732 -0.037684)
 50:   1440.45   0.011942   60.35  0.002587  (-0.047213  0.004001  0.018495)
 51:   1479.98   0.002011   10.16  0.000424  ( 0.012742 -0.016173 -0.000184)
 52:   1483.18   0.002607   13.17  0.000549  ( 0.018988  0.008941 -0.010395)
 53:   1492.16   0.000894    4.52  0.000187  (-0.002851 -0.010514 -0.008260)
 54:   1514.46   0.000385    1.95  0.000079  ( 0.004355  0.006158 -0.004739)
 55:   1520.17   0.000992    5.01  0.000204  ( 0.013998 -0.000331  0.002767)
 56:   1584.26   0.003738   18.89  0.000736  ( 0.017163 -0.007119 -0.019777)
 57:   1619.92   0.001146    5.79  0.000221  ( 0.002786 -0.006415 -0.013112)
 58:   2978.08   0.011153   56.36  0.001169  (-0.031642 -0.008344  0.009890)
 59:   3003.73   0.004380   22.14  0.000455  (-0.015949 -0.002023 -0.014022)
 60:   3015.22   0.004662   23.56  0.000482  ( 0.004740  0.020891  0.004855)
 61:   3044.71   0.005002   25.28  0.000513  ( 0.000479  0.020284  0.010049)
 62:   3053.23   0.003270   16.52  0.000334  ( 0.003941  0.016657 -0.006421)
 63:   3092.41   0.001801    9.10  0.000182  ( 0.007074  0.004060  0.010733)
 64:   3093.55   0.007620   38.51  0.000769  ( 0.027231 -0.005203  0.000204)
 65:   3116.70   0.002525   12.76  0.000253  ( 0.004608 -0.006411 -0.013803)
 66:   3475.42   0.056819  287.14  0.005102  (-0.018126  0.009981  0.068365)
 67:   3732.53   0.004233   21.39  0.000354  (-0.003989 -0.015222  0.010310)
 68:   3734.73   0.003055   15.44  0.000255  (-0.000376  0.015426 -0.004144)

* The epsilon (eps) is given for a Dirac delta lineshape.
** The dipole moment derivative (T) already includes vibrational overlap.

The first frequency considered to be a vibration is 6
The total number of vibrations considered is 63


--------------------------
THERMOCHEMISTRY AT 298.15K
--------------------------

Temperature         ...   298.15 K
Pressure            ...     1.00 atm
Total Mass          ...   169.18 AMU
Quasi RRHO          ...     True
Cut-Off Frequency   ...     1.00 cm^-1

Throughout the following assumptions are being made:
  (1) The electronic state is orbitally nondegenerate
  (2) There are no thermally accessible electronically excited states
  (3) Hindered rotations indicated by low frequency modes are not
      treated as such but are treated as vibrations and this may
      cause some error
  (4) All equations used are the standard statistical mechanics
      equations for an ideal gas
  (5) All vibrations are strictly harmonic

freq.      75.56  E(vib)   ...       0.49 
freq.      80.58  E(vib)   ...       0.48 
freq.     101.43  E(vib)   ...       0.46 
freq.     121.66  E(vib)   ...       0.44 
freq.     129.16  E(vib)   ...       0.43 
freq.     209.50  E(vib)   ...       0.34 
freq.     232.43  E(vib)   ...       0.32 
freq.     278.60  E(vib)   ...       0.28 
freq.     290.90  E(vib)   ...       0.27 
freq.     318.76  E(vib)   ...       0.25 
freq.     347.42  E(vib)   ...       0.23 
freq.     356.52  E(vib)   ...       0.22 
freq.     413.46  E(vib)   ...       0.19 
freq.     440.29  E(vib)   ...       0.17 
freq.     495.02  E(vib)   ...       0.14 
freq.     524.33  E(vib)   ...       0.13 
freq.     545.42  E(vib)   ...       0.12 
freq.     582.74  E(vib)   ...       0.11 
freq.     640.47  E(vib)   ...       0.09 
freq.     677.45  E(vib)   ...       0.08 
freq.     746.39  E(vib)   ...       0.06 
freq.     763.45  E(vib)   ...       0.06 
freq.     778.06  E(vib)   ...       0.05 
freq.     883.64  E(vib)   ...       0.04 
freq.     909.19  E(vib)   ...       0.03 
freq.     943.93  E(vib)   ...       0.03 
freq.     970.38  E(vib)   ...       0.03 
freq.     989.11  E(vib)   ...       0.02 
freq.    1002.06  E(vib)   ...       0.02 
freq.    1028.36  E(vib)   ...       0.02 
freq.    1047.40  E(vib)   ...       0.02 
freq.    1087.19  E(vib)   ...       0.02 
freq.    1188.87  E(vib)   ...       0.01 
freq.    1205.86  E(vib)   ...       0.01 
freq.    1250.50  E(vib)   ...       0.01 
freq.    1261.63  E(vib)   ...       0.01 
freq.    1300.30  E(vib)   ...       0.01 
freq.    1317.90  E(vib)   ...       0.01 
freq.    1360.61  E(vib)   ...       0.01 
freq.    1373.15  E(vib)   ...       0.01 
freq.    1386.49  E(vib)   ...       0.00 
freq.    1395.43  E(vib)   ...       0.00 
freq.    1407.62  E(vib)   ...       0.00 
freq.    1409.80  E(vib)   ...       0.00 
freq.    1440.45  E(vib)   ...       0.00 
freq.    1479.98  E(vib)   ...       0.00 
freq.    1483.18  E(vib)   ...       0.00 
freq.    1492.16  E(vib)   ...       0.00 
freq.    1514.46  E(vib)   ...       0.00 
freq.    1520.17  E(vib)   ...       0.00 
freq.    1584.26  E(vib)   ...       0.00 
freq.    1619.92  E(vib)   ...       0.00 
freq.    2978.08  E(vib)   ...       0.00 
freq.    3003.73  E(vib)   ...       0.00 
freq.    3015.22  E(vib)   ...       0.00 
freq.    3044.71  E(vib)   ...       0.00 
freq.    3053.23  E(vib)   ...       0.00 
freq.    3092.41  E(vib)   ...       0.00 
freq.    3093.55  E(vib)   ...       0.00 
freq.    3116.70  E(vib)   ...       0.00 
freq.    3475.42  E(vib)   ...       0.00 
freq.    3732.53  E(vib)   ...       0.00 
freq.    3734.73  E(vib)   ...       0.00 

------------
INNER ENERGY
------------

The inner energy is: U= E(el) + E(ZPE) + E(vib) + E(rot) + E(trans)
    E(el)   - is the total energy from the electronic structure calculation
              = E(kin-el) + E(nuc-el) + E(el-el) + E(nuc-nuc)
    E(ZPE)  - the the zero temperature vibrational energy from the frequency calculation
    E(vib)  - the the finite temperature correction to E(ZPE) due to population
              of excited vibrational states
    E(rot)  - is the rotational thermal energy
    E(trans)- is the translational thermal energy

Summary of contributions to the inner energy U:
Electronic energy                ...   -591.62750458 Eh
Zero point energy                ...      0.18531505 Eh     116.29 kcal/mol
Thermal vibrational correction   ...      0.00913864 Eh       5.73 kcal/mol
Thermal rotational correction    ...      0.00141627 Eh       0.89 kcal/mol
Thermal translational correction ...      0.00141627 Eh       0.89 kcal/mol
-----------------------------------------------------------------------
Total thermal energy                   -591.43021834 Eh


Summary of corrections to the electronic energy:
(perhaps to be used in another calculation)
Total thermal correction                  0.01197119 Eh       7.51 kcal/mol
Non-thermal (ZPE) correction              0.18531505 Eh     116.29 kcal/mol
-----------------------------------------------------------------------
Total correction                          0.19728624 Eh     123.80 kcal/mol


--------
ENTHALPY
--------

The enthalpy is H = U + kB*T
                kB is Boltzmann's constant
Total thermal energy              ...   -591.43021834 Eh 
Thermal Enthalpy correction       ...      0.00094421 Eh       0.59 kcal/mol
-----------------------------------------------------------------------
Total Enthalpy                    ...   -591.42927413 Eh


Note: Only C1 symmetry has been detected, increase convergence thresholds 
      if your molecule has a higher symmetry. Symmetry factor of 1.0 is   
      used for the rotational entropy correction. 
 

Note: Rotational entropy computed according to Herzberg 
Infrared and Raman Spectra, Chapter V,1, Van Nostrand Reinhold, 1945 
Point Group:  C1, Symmetry Number:   1  
Rotational constants in cm-1:     0.042269     0.027555     0.017664 

Vibrational entropy computed according to the QRRHO of S. Grimme
Chem.Eur.J. 2012 18 9955 using a reference frequency of 100.0 cm-1


-------
ENTROPY
-------

The entropy contributions are T*S = T*(S(el)+S(vib)+S(rot)+S(trans))
     S(el)   - electronic entropy
     S(vib)  - vibrational entropy
     S(rot)  - rotational entropy
     S(trans)- translational entropy
The entropies will be listed as multiplied by the temperature to get
units of energy

Electronic entropy                ...      0.00000000 Eh      0.00 kcal/mol
Vibrational entropy               ...      0.01568230 Eh      9.84 kcal/mol
Rotational entropy                ...      0.01460539 Eh      9.16 kcal/mol
Translational entropy             ...      0.01961591 Eh     12.31 kcal/mol
-----------------------------------------------------------------------
Final entropy term                ...      0.04990359 Eh     31.31 kcal/mol

In case the symmetry of your molecule has not been determined correctly
or in case you have a reason to use a different symmetry number we print 
out the resulting rotational entropy values for sn=1,12:

 non-linear molecules -----------------------------------
|  sn= 1 | S(rot)=       0.01460539 Eh      9.16 kcal/mol|
|  sn= 2 | S(rot)=       0.01395093 Eh      8.75 kcal/mol|
|  sn= 3 | S(rot)=       0.01356810 Eh      8.51 kcal/mol|
|  sn= 4 | S(rot)=       0.01329647 Eh      8.34 kcal/mol|
|  sn= 5 | S(rot)=       0.01308578 Eh      8.21 kcal/mol|
|  sn= 6 | S(rot)=       0.01291364 Eh      8.10 kcal/mol|
|  sn= 7 | S(rot)=       0.01276809 Eh      8.01 kcal/mol|
|  sn= 8 | S(rot)=       0.01264202 Eh      7.93 kcal/mol|
|  sn= 9 | S(rot)=       0.01253081 Eh      7.86 kcal/mol|
|  sn=10 | S(rot)=       0.01243133 Eh      7.80 kcal/mol|
|  sn=11 | S(rot)=       0.01234134 Eh      7.74 kcal/mol|
|  sn=12 | S(rot)=       0.01225918 Eh      7.69 kcal/mol|
 linear molecules ---------------------------------------
|  Dinfh | S(rot)=       0.00913676 Eh      5.73 kcal/mol|
|  Cinfv | S(rot)=       0.00979121 Eh      6.14 kcal/mol|
 --------------------------------------------------------


-------------------
GIBBS FREE ENERGY
-------------------

The Gibbs free energy is G = H - T*S

Total enthalpy                    ...   -591.42927413 Eh 
Total entropy correction          ...     -0.04990359 Eh    -31.31 kcal/mol
-----------------------------------------------------------------------
Final Gibbs free energy         ...   -591.47917772 Eh

For completeness - the Gibbs free energy minus the electronic energy
G-E(el)                           ...      0.14832686 Eh     93.08 kcal/mol


Maximum memory used throughout the entire PROP-calculation: 69.7 MB

--------------------------------
SUGGESTED CITATIONS FOR THIS RUN
--------------------------------

Below you find a list of papers that are relevant to this ORCA run
We neither can nor want to force you to cite these papers, but we appreciate if you do
You receive ORCA, which is the product of decades of hard work by many enthusiastic individuals, for free
The only thing we kindly ask in return is that you cite our papers,
We deeply appreciate it, if you show your appreciation for ORCA by not just citing the generic ORCA reference.

Please note that relegating all ORCA citations to the supporting information does *not* help us.
SI sections are not indexed - citations you put there will not count into any citation statistics
But we need these citations in order to attract the funding resources that allow us to do what we are doing

Therefore, if you are a happy ORCA user, please consider citing a few of the papers listed below in the main body of your paper

In addition to the list printed below, the program has created the file m1_00_Vitamin_B6-QM3_002-B97-3C-TZ.bibtex that contains the list in bibtex format
You can import this file easily into all common literature databanks and citation aid programs


List of essential papers. We consider these as the minimum necessary citations

  1. Neese,F.
     Software update: the ORCA program system, version 5.0
     WIRES Comput. Molec. Sci., 2022 12(1)e1606
     doi.org/10.1002/wcms.1606

List of papers to cite with high priority. The work reported in these papers was absolutely
necessary for this run to complete.
Our perspective: the developers of density functionals and basis sets usually get cited in chemistry papers
Good! But without the algorithms to do something with them, the functionals or basis sets would not do anything.
Hence, in our opinion, the algorithm design and method developments papers are equally worthy of getting cited

  1. Neese,F.
     An improvement of the resolution of the identity approximation for the formation of the Coulomb matrix
     J. Comp. Chem., 2003 24(14)1740-1747
     doi.org/10.1002/jcc.10318
  2. Bykov,D.; Petrenko,T.; Izsak,R.; Kossmann,S.; Becker,U.; Valeev,E.; Neese,F.
     Efficient implementation of the analytic second derivatives of Hartree-Fock and hybrid DFT energies: a detailed analysis of different approximations
     Molec. Phys., 2015 113 1961-1977
     doi.org/10.1080/00268976.2015.1025114
  3. Neese,F.
     The SHARK Integral Generation and Digestion System
     J. Comp. Chem., 2022  1-16
     doi.org/10.1002/jcc.26942
  4. Grimme,S.; Antony,J.; Ehrlich,S.; Krieg,H.
     A consistent and accurate ab initio parametrization of density functional dispersion correction (DFT-D) for the 94 elements H-Pu
     J. Chem. Phys., 2010 132 154104
     doi.org/10.1063/1.3382344
  5. Grimme,S.; Ehrlich,S.; Goerigk,L.
     Effect of the damping function in dispersion corrected density functional theory
     J. Comput. Chem., 2011 32(7)1456-1465
     doi.org/10.1002/jcc.21759

List of suggested additional citations. These are papers that are important in the 'surrounding' of 
of this run, or papers that preceded the highly important papers. If you like your results we are grateful for a citation.

  1. Neese,F.
     The ORCA program system
     WIRES Comput. Molec. Sci., 2012 2(1)73-78
     doi.org/10.1002/wcms.81
  2. Neese,F.
     Software update: the ORCA program system, version 4.0
     WIRES Comput. Molec. Sci., 2018 8(1)1-6
     doi.org/10.1002/wcms.1327
  3. Neese,F.; Wennmohs,F.; Becker,U.; Riplinger,C.
     The ORCA quantum chemistry program package
     J. Chem. Phys., 2020 152 Art. No. L224108
     doi.org/10.1063/5.0004608

List of optional additional citations

  1. Neese,F.
     Approximate second-order SCF convergence for spin unrestricted wavefunctions
     Chem. Phys. Lett., 2000 325(1-3)93-98
     doi.org/10.1016/s0009-2614(00)00662-x

Timings for individual modules:

Sum of individual times          ...      154.401 sec (=   2.573 min)
Startup calculation              ...       25.267 sec (=   0.421 min)  16.4 %
SCF iterations                   ...       35.481 sec (=   0.591 min)  23.0 %
Property integrals               ...       33.513 sec (=   0.559 min)  21.7 %
SCF Response                     ...       23.498 sec (=   0.392 min)  15.2 %
Property calculations            ...       14.861 sec (=   0.248 min)   9.6 %
SCF Gradient evaluation          ...       21.731 sec (=   0.362 min)  14.1 %
Geometry relaxation              ...        0.051 sec (=   0.001 min)   0.0 %
                             ****ORCA TERMINATED NORMALLY****
TOTAL RUN TIME: 0 days 0 hours 2 minutes 36 seconds 753 msec
