
                                 *****************
                                 * O   R   C   A *
                                 *****************

                                            #,                                       
                                            ###                                      
                                            ####                                     
                                            #####                                    
                                            ######                                   
                                           ########,                                 
                                     ,,################,,,,,                         
                               ,,#################################,,                 
                          ,,##########################################,,             
                       ,#########################################, ''#####,          
                    ,#############################################,,   '####,        
                  ,##################################################,,,,####,       
                ,###########''''           ''''###############################       
              ,#####''   ,,,,##########,,,,          '''####'''          '####       
            ,##' ,,,,###########################,,,                        '##       
           ' ,,###''''                  '''############,,,                           
         ,,##''                                '''############,,,,        ,,,,,,###''
      ,#''                                            '''#######################'''  
     '                                                          ''''####''''         
             ,#######,   #######,   ,#######,      ##                                
            ,#'     '#,  ##    ##  ,#'     '#,    #''#        ,####,   ,####,        
            ##       ##  ##   ,#'  ##            #'  '#       #'       #'  '#        
            ##       ##  #######   ##           ,######,      #####,   #    #        
            '#,     ,#'  ##    ##  '#,     ,#' ,#      #,     #,   #   #,  ,#        
             '#######'   ##     ##  '#######'  #'      '#     '####' # '####'        



                #########################################################
                #                        -***-                          #
                #          Department of theory and spectroscopy        #
                #                                                       #
                #                      Frank Neese                      #
                #                                                       #
                #     Directorship, Architecture, Infrastructure        #
                #                    SHARK, DRIVERS                     #
                #        Core code/Algorithms in most modules           #
                #                                                       #
                #        Max Planck Institute fuer Kohlenforschung      #
                #                Kaiser Wilhelm Platz 1                 #
                #                 D-45470 Muelheim/Ruhr                 #
                #                      Germany                          #
                #                                                       #
                #                  All rights reserved                  #
                #                        -***-                          #
                #########################################################


                         Program Version 6.0.1  -  RELEASE   -


 With contributions from (in alphabetic order):
[Max-Planck-Institut fuer Kohlenforschung]                               
  Daniel Aravena         : Magnetic Suceptibility                        
  Michael Atanasov       : Ab Initio Ligand Field Theory (pilot matlab implementation)
  Alexander A. Auer      : GIAO ZORA, VPT2 properties, NMR spectrum      
  Ute Becker             : All parallelization in ORCA, NUMFREQ, NUMCALC 
  Giovanni Bistoni       : ED, misc. LED, open-shell LED, HFLD           
  Martin Brehm           : Molecular dynamics                            
  Dmytro Bykov           : pre 5.0 version of the SCF Hessian            
  Marcos Casanova-Páez   : Triplet and SCS-CIS(D). UHF-(DLPNO)-IP/EA/STEOM-CCSD. UHF-CVS-IP/STEOM-CCSD   
  Vijay G. Chilkuri      : MRCI spin determinant printing, contributions to CSF-ICE 
  Pauline Colinet        : FMM embedding                                 
  Dipayan Datta          : RHF DLPNO-CCSD density                        
  Achintya Kumar Dutta   : EOM-CC, STEOM-CC                              
  Nicolas Foglia         : Exact transition moments, OPA infrastructure, MCD improvements    
  Dmitry Ganyushin       : Spin-Orbit,Spin-Spin,Magnetic field MRCI      
  Miquel Garcia-Rates    : C-PCM and meta-GGA Hessian, CCSD/C-PCM, Gaussian charge scheme 
  Tiago L. C. Gouveia    : GS-ROHF, GS-ROCIS                             
  Yang Guo               : DLPNO-NEVPT2, F12-NEVPT2, CIM, IAO-localization        
  Andreas Hansen         : Spin unrestricted coupled pair/coupled cluster methods 
  Ingolf Harden          : AUTO-CI MPn and infrastructure                
  Benjamin Helmich-Paris : MC-RPA, TRAH-(SCF,CASSCF), AVAS, COSX integrals, SCF dyn. polar. 
  Lee Huntington         : MR-EOM, pCC                                   
  Robert Izsak           : Overlap fitted RIJCOSX, COSX-SCS-MP3, EOM     
  Riya Kayal             : Wick's Theorem for AUTO-CI, AUTO-CI UHF-CCSDT 
  Emily Kempfer          : AUTO-CI, RHF CISDT and CCSDT                  
  Christian Kollmar      : KDIIS, OOCD, Brueckner-CCSD(T), CCSD density, CASPT2, CASPT2-K, improved NEVPT2 
  Axel Koslowski         : Symmetry handling                             
  Simone Kossmann        : meta-GGA functionals, TD-DFT gradient, OOMP2, (MP2 Hessian; deprecated post 5.0) 
  Lucas Lang             : DCDCAS                                        
  Marvin Lechner         : AUTO-CI (C++ implementation), FIC-MRCC        
  Spencer Leger          : CASSCF response                               
  Dagmar Lenk            : GEPOL surface, SMD, ORCA-2-JSON               
  Dimitrios Liakos       : Extrapolation schemes; Compound Job, initial MDCI parallelization 
  Dimitrios Manganas     : Further ROCIS development; embedding schemes. LFT, Crystal Embedding 
  Dimitrios Pantazis     : SARC Basis sets                               
  Anastasios Papadopoulos: AUTO-CI, single reference methods and gradients 
  Taras Petrenko         : pre 6.0 DFT Hessian and TD-DFT gradient, (ASA, deprecated), ECA, 1-Electron XAS/XES, NRVS 
  Peter Pinski           : DLPNO-MP2, DLPNO-MP2 Gradient                 
  Christoph Reimann      : Effective Core Potentials                     
  Marius Retegan         : Local ZFS, SOC                                
  Christoph Riplinger    : Optimizer, TS searches, QM/MM, DLPNO-CCSD(T), (RO)-DLPNO pert. Triples 
  Michael Roemelt        : Original ROCIS implementation                 
  Masaaki Saitow         : Open-shell DLPNO-CCSD energy and density      
  Barbara Sandhoefer     : DKH picture change effects                    
  Kantharuban Sivalingam : CASSCF convergence/infrastructure, NEVPT2 and variants, FIC-MRCI 
  Bernardo de Souza      : ESD, SOC TD-DFT                               
  Georgi L. Stoychev     : AutoAux, RI-MP2 NMR, DLPNO-MP2 response, X2C  
  Van Anh Tran           : RI-MP2 g-tensors                              
  Willem Van den Heuvel  : Paramagnetic NMR                              
  Zikuan Wang            : NOTCH, Electric field optimization            
  Frank Wennmohs         : Technical directorship and infrastructure     
  Hang Xu                : AUTO-CI-Response properties                   
                                                                         
[FACCTs GmbH]                                                            
  Markus Bursch, Miquel Garcia-Rates, Christoph Riplinger, Bernardo de Souza, Georgi L. Stoychev 
                                                                 
  APM, Basis sets (HGBS, AHGBS, def-TZVP (Ac-Lr), def2-XVPD (La-Lu)), CI-OPT, improved COSX, DLPNO-Multilevel,           
  DOCKER, DRACO, updates on ESD, GOAT, IRC, LR-CPCM, MBIS, meta-GGA TD-DFT gradient, ML-optimized integration grids, 
  MM, NACMEs, nearIR, NEB, NEB-TS, NL-DFT gradient (VV10), 2- and 3-layer-ONIOM, interface openCOSMO-RS, QMMM,   
  Crystal-QMMM, SF, symmetry and pop. for TD-DFT, r2SCAN hybrids, SOLVATOR                                   
                                                                         
[Other institutions]                                                     
  V. Asgeirsson          : NEB                                           
  Christoph Bannwarth    : sTDA-DFT, sTD-DFT, PBEh-3c, B97-3c, D3        
  Sebastian Ehlert       : rSCAN, r2SCAN, r2SCAN-3c, D4, dhf basis sets  
  Marvin Friede          : D4 for Fr, Ra, Ac-Lr                          
  Lars Goerigk           : TD-DFT with DH, B97 family of functionals     
  Stefan Grimme          : VdW corrections, initial TS optimization, DFT functionals, gCP, sTDA/sTD-DF 
  Waldemar Hujo          : DFT-NL                                        
  H. Jonsson             : NEB                                           
  Holger Kruse           : gCP                                           
  Marcel Mueller         : wB97X-3c, vDZP basis set                      
  Hagen Neugebauer       : wr2SCAN                                       
  Tobias Risthaus        : range-separated hybrid DFT                    
  Lukas Wittmann         : regularized MP2, r2SCAN double-hybrids, wr2SCAN        
                                                                         
We gratefully acknowledge several colleagues who have allowed us to      
interface, adapt or use parts of their codes:                            
  Ed Valeev, F. Pavosevic, A. Kumar             : LibInt (2-el integral package), F12 methods 
  Garnet Chan, S. Sharma, J. Yang, R. Olivares  : DMRG                   
  Ulf Ekstrom                                   : XCFun DFT Library      
  Mihaly Kallay                                 : mrcc  (arbitrary order and MRCC methods)
  Frank Weinhold                                : gennbo (NPA and NBO analysis)           
  Simon Mueller                                 : openCOSMO-RS                            
  Christopher J. Cramer and Donald G. Truhlar   : smd solvation model                     
  S Lehtola, MJT Oliveira, MAL Marques          : LibXC Library                           
  Liviu Ungur et al                             : ANISO software                          


 Your calculation uses the libint2 library for the computation of 2-el integrals
 For citations please refer to: http://libint.valeyev.net

 Your ORCA version has been built with support for libXC version: 6.2.2
 For citations please refer to: https://libxc.gitlab.io

 This ORCA versions uses:
   CBLAS   interface :  Fast vector & matrix operations
   LAPACKE interface :  Fast linear algebra routines
   SCALAPACK package :  Parallel linear algebra routines
   Shared memory     :  Shared parallel matrices
   BLAS/LAPACK       :  OpenBLAS 0.3.27  USE64BITINT DYNAMIC_ARCH NO_AFFINITY Zen SINGLE_THREADED
        Core in use  :  Zen
   Copyright (c) 2011-2014, The OpenBLAS Project


NOTE: MaxCore=6000 MB was set to SCF,MP2,MDCI,CIPSI,MRCI and CIS
      => If you want to overwrite this, your respective input block should be placed after the MaxCore statement
Your calculation utilizes the atom-pairwise dispersion correction
with the Becke-Johnson damping scheme (D3BJ)


Your calculation employs the composite approach B97-3c by Grimme and coworkers.
For the correct reference, please check the publication list of the Grimme group:
http://www.thch.uni-bonn.de/tc/index.php?section=publikationen&subsection=grimme#2017
   

XCFun DFT library Copyright 2009-2010 Ulf Ekstrom and contributors.
See http://admol.org/xcfun for more information.
This is free software; see the source code for copying conditions.
There is ABSOLUTELY NO WARRANTY; not even for MERCHANTABILITY or FITNESS FOR A PARTICULAR PURPOSE.
For details see the documentation.
Scientific users of this library should cite U. Ekstrom, L. Visscher, R. Bast, A. J. Thorvaldsen and K. Ruud;
J.Chem.Theor.Comp. 2010, DOI: 10.1021/ct100117s
XCFun Version 0.99 

================================================================================

----- Orbital basis set information -----
Your calculation utilizes the basis: def2-mTZVP
----- AuxJ basis set information -----
Your calculation utilizes the basis: def2-mTZVP/J
================================================================================
                                        WARNINGS
                       Please study these warnings very carefully!
================================================================================


WARNING: Geometry Optimization
  ===> : Switching off AutoStart
         For restart on a previous wavefunction, please use MOREAD

================================================================================
                                       INPUT FILE
================================================================================
NAME = m1_00_Vitamin_B6-QM3_000-B97-3C-TZ.inp
|  1> %pal nprocs 16 end
|  2> %MaxCore 6000
|  3> # put your comments here
|  4> ! B97-3C  OPT  FREQ DEFGRID3 NOTRAH
|  5> %scf MaxIter 800 end
|  6> %output
|  7> Print [P_Hirshfeld] 1
|  8> end
|  9> %geom
| 10> MaxIter 3000
| 11>  TolE 1e-6 #TolE 5e-6 Energy change (a.u.)
| 12>  TolRMSG 3e-5 #TolRMSG 1e-4 RMS gradient (a.u.)
| 13>  TolMaxG 1e-4 #TolMaxG 3e-3 Max. element of gradient (a.u.)
| 14>  TolRMSD 2e-3 #TolRMSD 2e-3 RMS displacement (a.u.)
| 15>  TolMaxD 4e-3 #TolMaxD 4e-3 Max. displacement (a.u.)
| 16> end
| 17> * xyz 0 1
| 18>  O       1.93385166      -1.35246557      -0.10533336
| 19>  O      -1.41396335      -2.35083762      -0.56584116
| 20>  O      -3.17431383      -0.20799930      -0.46172416
| 21>  N       0.75434012       2.06300011      -0.20377123
| 22>  C      -0.22235403      -0.46591775       0.31631394
| 23>  C      -1.07462320       0.63129951       0.35297916
| 24>  C       1.10924695      -0.27632137      -0.01335496
| 25>  C       1.57502360       1.02166679      -0.26191291
| 26>  C      -0.72025022      -1.85759479       0.56559897
| 27>  C      -2.55021859       0.45409497       0.60514001
| 28>  C      -0.53483314       1.87807337       0.08512207
| 29>  C       3.01735074       1.27085438      -0.60842810
| 30>  H       0.11728340      -2.50697425       0.82068174
| 31>  H      -1.42894516      -1.86843728       1.39612803
| 32>  H      -2.69092267      -0.09045384       1.55062946
| 33>  H      -3.02453085       1.43364621       0.71904210
| 34>  H      -1.15931472       2.76688124       0.10197773
| 35>  H       3.30057824       0.75674753      -1.53087680
| 36>  H       3.16714990       2.33695069      -0.74690690
| 37>  H       3.68453350       0.92523166       0.18589453
| 38>  H       2.81978897      -1.03937639      -0.30916422
| 39>  H      -0.78176503      -2.48029366      -1.28072636
| 40>  H      -2.70311232      -1.04177465      -0.61146761
| 41> *
| 42> 
| 43> 
| 44> 
| 45> 
| 46>                          ****END OF INPUT****
================================================================================

                       *****************************
                       * Geometry Optimization Run *
                       *****************************

Geometry optimization settings:
Update method            Update   .... BFGS
Choice of coordinates    CoordSys .... (2022) Redundant Internals
Initial Hessian          InHess   .... Almloef's Model
Max. no of cycles        MaxIter  .... 3000

Convergence Tolerances:
Energy Change            TolE     ....  1.0000e-06 Eh
Max. Gradient            TolMAXG  ....  1.0000e-04 Eh/bohr
RMS Gradient             TolRMSG  ....  3.0000e-05 Eh/bohr
Max. Displacement        TolMAXD  ....  4.0000e-03 bohr
RMS Displacement         TolRMSD  ....  2.0000e-03 bohr
Strict Convergence                .... False

------------------------------------------------------------------------------
                        ORCA OPTIMIZATION COORDINATE SETUP
------------------------------------------------------------------------------

The optimization will be done in redundant internal coordinates (2022)
Making redundant internal coordinates   ...  (2022 redundants) done
Evaluating the initial hessian          ...  (Almloef) done
Evaluating the coordinates              ...  done
Calculating the B-matrix                .... done
Calculating the G-matrix                .... done
Diagonalizing the G-matrix              .... done
The first mode is                       ....   41
The number of degrees of freedom        ....   63

    -----------------------------------------------------------------
                    Redundant Internal Coordinates


    -----------------------------------------------------------------
         Definition                    Initial Value    Approx d2E/dq
    -----------------------------------------------------------------
      1. B(C   5,C   4)                  1.3898         0.625215   
      2. B(C   6,C   4)                  1.3848         0.636746   
      3. B(C   6,O   0)                  1.3589         0.627403   
      4. B(C   7,C   6)                  1.4013         0.599500   
      5. B(C   7,N   3)                  1.3271         0.704983   
      6. B(C   8,O   1)                  1.4159         0.508867   
      7. B(C   8,C   4)                  1.4989         0.418734   
      8. B(C   9,C   5)                  1.5074         0.405858   
      9. B(C   9,O   2)                  1.4022         0.535142   
     10. B(C  10,C   5)                  1.3848         0.636935   
     11. B(C  10,N   3)                  1.3340         0.687351   
     12. B(C  11,C   7)                  1.5042         0.410786   
     13. B(H  12,C   8)                  1.0901         0.360025   
     14. B(H  13,C   8)                  1.0919         0.357656   
     15. B(H  14,C   9)                  1.1001         0.346948   
     16. B(H  15,C   9)                  1.0943         0.354472   
     17. B(H  16,C  10)                  1.0864         0.364909   
     18. B(H  17,C  11)                  1.0934         0.355683   
     19. B(H  18,C  11)                  1.0854         0.366185   
     20. B(H  19,C  11)                  1.0934         0.355623   
     21. B(H  20,O   0)                  0.9615         0.517124   
     22. B(H  21,O   1)                  0.9631         0.514134   
     23. B(H  22,O   1)                  1.8378         0.020675   
     24. B(H  22,O   2)                  0.9693         0.502404   
     25. A(C   6,O   0,H  20)          108.3982         0.370524   
     26. A(C   8,O   1,H  21)          108.5652         0.357140   
     27. A(C   9,O   2,H  22)          107.8984         0.358800   
     28. A(C   7,N   3,C  10)          119.8886         0.446675   
     29. A(C   5,C   4,C   8)          121.6613         0.405334   
     30. A(C   6,C   4,C   8)          119.0844         0.406645   
     31. A(C   5,C   4,C   6)          119.1989         0.436813   
     32. A(C   4,C   5,C  10)          117.8176         0.436836   
     33. A(C   4,C   5,C   9)          120.7890         0.403106   
     34. A(C   9,C   5,C  10)          121.3168         0.404429   
     35. A(O   0,C   6,C   7)          121.3231         0.429546   
     36. A(C   4,C   6,C   7)          119.2530         0.433522   
     37. A(O   0,C   6,C   4)          119.4190         0.434223   
     38. A(N   3,C   7,C  11)          118.2340         0.409979   
     39. A(N   3,C   7,C   6)          120.8974         0.438652   
     40. A(C   6,C   7,C  11)          120.8679         0.400985   
     41. A(H  12,C   8,H  13)          108.3483         0.290519   
     42. A(C   4,C   8,H  13)          110.5683         0.330104   
     43. A(O   1,C   8,H  13)          106.6411         0.338908   
     44. A(C   4,C   8,H  12)          109.6822         0.330465   
     45. A(O   1,C   8,H  12)          110.8498         0.339281   
     46. A(O   1,C   8,C   4)          110.6885         0.388445   
     47. A(H  14,C   9,H  15)          107.3491         0.288434   
     48. A(C   5,C   9,H  15)          109.6620         0.327922   
     49. A(O   2,C   9,H  15)          107.9965         0.341260   
     50. A(C   5,C   9,H  14)          109.0958         0.326764   
     51. A(O   2,C   9,H  14)          111.3007         0.340039   
     52. A(O   2,C   9,C   5)          111.3414         0.389743   
     53. A(N   3,C  10,C   5)          122.9154         0.441452   
     54. A(C   5,C  10,H  16)          120.6328         0.355322   
     55. A(N   3,C  10,H  16)          116.4518         0.357724   
     56. A(H  17,C  11,H  18)          108.5688         0.291041   
     57. A(C   7,C  11,H  18)          108.9317         0.330344   
     58. A(C   7,C  11,H  17)          111.3989         0.328760   
     59. A(H  18,C  11,H  19)          108.5986         0.291033   
     60. A(H  17,C  11,H  19)          107.8310         0.289707   
     61. A(C   7,C  11,H  19)          111.4311         0.328751   
     62. D(C  10,C   5,C   4,C   6)     -1.4982         0.027077   
     63. D(C   9,C   5,C   4,C   8)     -1.9085         0.027077   
     64. D(C   9,C   5,C   4,C   6)    175.3607         0.027077   
     65. D(C  10,C   5,C   4,C   8)   -178.7673         0.027077   
     66. D(O   0,C   6,C   4,C   5)   -177.2601         0.028151   
     67. D(C   4,C   6,O   0,H  20)   -177.9857         0.028930   
     68. D(C   7,C   6,C   4,C   5)      1.9451         0.028151   
     69. D(O   0,C   6,C   4,C   8)      0.0802         0.028151   
     70. D(C   7,C   6,O   0,H  20)      2.8261         0.028930   
     71. D(C   7,C   6,C   4,C   8)    179.2854         0.028151   
     72. D(N   3,C   7,C   6,C   4)     -0.9623         0.024774   
     73. D(N   3,C   7,C   6,O   0)    178.2272         0.024774   
     74. D(C  11,C   7,N   3,C  10)    179.2124         0.037270   
     75. D(C  11,C   7,C   6,O   0)     -1.4685         0.024774   
     76. D(C   6,C   7,N   3,C  10)     -0.4912         0.037270   
     77. D(C  11,C   7,C   6,C   4)    179.3419         0.024774   
     78. D(H  13,C   8,C   4,C   5)    -41.7363         0.012968   
     79. D(H  12,C   8,C   4,C   5)   -161.1634         0.012968   
     80. D(O   1,C   8,C   4,C   6)   -101.0608         0.012968   
     81. D(O   1,C   8,C   4,C   5)     76.2114         0.012968   
     82. D(H  12,C   8,O   1,H  21)    -53.7315         0.022240   
     83. D(H  12,C   8,C   4,C   6)     21.5644         0.012968   
     84. D(C   4,C   8,O   1,H  21)     68.2113         0.022240   
     85. D(H  13,C   8,O   1,H  21)   -171.4685         0.022240   
     86. D(H  14,C   9,C   5,C   4)     55.7281         0.012209   
     87. D(O   2,C   9,C   5,C  10)    109.2474         0.012209   
     88. D(O   2,C   9,C   5,C   4)    -67.5005         0.012209   
     89. D(H  15,C   9,O   2,H  22)    175.1300         0.022762   
     90. D(H  14,C   9,O   2,H  22)    -67.2775         0.022762   
     91. D(H  14,C   9,C   5,C  10)   -127.5240         0.012209   
     92. D(C   5,C   9,O   2,H  22)     54.6824         0.022762   
     93. D(H  15,C   9,C   5,C   4)    173.0375         0.012209   
     94. D(H  16,C  10,C   5,C   9)      3.1992         0.028169   
     95. D(H  16,C  10,C   5,C   4)   -179.9595         0.028169   
     96. D(N   3,C  10,C   5,C   9)   -176.7902         0.028169   
     97. D(N   3,C  10,C   5,C   4)      0.0512         0.028169   
     98. D(H  16,C  10,N   3,C   7)   -179.0295         0.035259   
     99. D(C   5,C  10,N   3,C   7)      0.9602         0.035259   
    100. D(H  19,C  11,C   7,N   3)    120.8610         0.012496   
    101. D(H  18,C  11,C   7,C   6)   -179.2272         0.012496   
    102. D(H  18,C  11,C   7,N   3)      1.0691         0.012496   
    103. D(H  17,C  11,C   7,C   6)     61.0376         0.012496   
    104. D(H  17,C  11,C   7,N   3)   -118.6661         0.012496   
    -----------------------------------------------------------------

Number of atoms                         .... 23
Number of degrees of freedom            .... 104


         *************************************************************
         *                GEOMETRY OPTIMIZATION CYCLE   1            *
         *************************************************************
---------------------------------
CARTESIAN COORDINATES (ANGSTROEM)
---------------------------------
  O      1.933852   -1.352466   -0.105333
  O     -1.413963   -2.350838   -0.565841
  O     -3.174314   -0.207999   -0.461724
  N      0.754340    2.063000   -0.203771
  C     -0.222354   -0.465918    0.316314
  C     -1.074623    0.631300    0.352979
  C      1.109247   -0.276321   -0.013355
  C      1.575024    1.021667   -0.261913
  C     -0.720250   -1.857595    0.565599
  C     -2.550219    0.454095    0.605140
  C     -0.534833    1.878073    0.085122
  C      3.017351    1.270854   -0.608428
  H      0.117283   -2.506974    0.820682
  H     -1.428945   -1.868437    1.396128
  H     -2.690923   -0.090454    1.550629
  H     -3.024531    1.433646    0.719042
  H     -1.159315    2.766881    0.101978
  H      3.300578    0.756748   -1.530877
  H      3.167150    2.336951   -0.746907
  H      3.684534    0.925232    0.185895
  H      2.819789   -1.039376   -0.309164
  H     -0.781765   -2.480294   -1.280726
  H     -2.703112   -1.041775   -0.611468

----------------------------
CARTESIAN COORDINATES (A.U.)
----------------------------
  NO LB      ZA    FRAG     MASS         X           Y           Z
   0 O     8.0000    0    15.999    3.654450   -2.555790   -0.199051
   1 O     8.0000    0    15.999   -2.672003   -4.442439   -1.069285
   2 O     8.0000    0    15.999   -5.998584   -0.393062   -0.872532
   3 N     7.0000    0    14.007    1.425496    3.898505   -0.385072
   4 C     6.0000    0    12.011   -0.420188   -0.880457    0.597747
   5 C     6.0000    0    12.011   -2.030744    1.192983    0.667034
   6 C     6.0000    0    12.011    2.096173   -0.522172   -0.025237
   7 C     6.0000    0    12.011    2.976363    1.930670   -0.494944
   8 C     6.0000    0    12.011   -1.361076   -3.510345    1.068827
   9 C     6.0000    0    12.011   -4.819215    0.858115    1.143549
  10 C     6.0000    0    12.011   -1.010688    3.549044    0.160857
  11 C     6.0000    0    12.011    5.701967    2.401567   -1.149762
  12 H     1.0000    0     1.008    0.221634   -4.737495    1.550864
  13 H     1.0000    0     1.008   -2.700315   -3.530835    2.638300
  14 H     1.0000    0     1.008   -5.085107   -0.170933    2.930265
  15 H     1.0000    0     1.008   -5.715535    2.709199    1.358793
  16 H     1.0000    0     1.008   -2.190787    5.228648    0.192710
  17 H     1.0000    0     1.008    6.237189    1.430046   -2.892938
  18 H     1.0000    0     1.008    5.985046    4.416197   -1.411449
  19 H     1.0000    0     1.008    6.962759    1.748434    0.351290
  20 H     1.0000    0     1.008    5.328629   -1.964137   -0.584236
  21 H     1.0000    0     1.008   -1.477322   -4.687076   -2.420222
  22 H     1.0000    0     1.008   -5.108142   -1.968669   -1.155506

--------------------------------
INTERNAL COORDINATES (ANGSTROEM)
--------------------------------
 O      0   0   0     0.000000000000     0.00000000     0.00000000
 O      1   0   0     3.523730909883     0.00000000     0.00000000
 O      2   1   0     2.775145082295   112.27075079     0.00000000
 N      1   2   3     3.614739727629    87.37114881   353.32700577
 C      1   2   3     2.369172104414    42.65954937    18.63251466
 C      5   1   2     1.389817539151   149.11688308   217.58250316
 C      1   2   3     1.358866915122    69.92120544     1.49835222
 C      4   1   2     1.327131083443    19.61242272   199.39572089
 C      2   1   3     1.415868342698    48.03839848   290.55305542
 C      3   2   1     1.402163631031    96.36243451   319.37986740
 C      4   1   2     1.334025836426   100.27987600    20.45732853
 C      8   4   1     1.504152522416   118.23401552   178.00756692
 H      9   2   1     1.090056634882   110.84978240   300.60618118
 H      9   2   1     1.091853743445   106.64112506   182.86923019
 H     10   3   2     1.100127876505   111.30067219   289.50003016
 H     10   3   2     1.094288096380   107.99648961   171.90747201
 H     11   4   1     1.086388874578   116.45179806   181.38144358
 H     12   8   4     1.093359627069   111.39892304   241.33394572
 H     12   8   4     1.085438855294   108.93166390     1.06907150
 H     12   8   4     1.093405844301   111.43112546   120.86102338
 H      1   2   3     0.961486750492   160.04802067   272.76538322
 H      2   1   3     0.963065123074    60.75288121   116.70677647
 H      3   2   1     0.969347872599    11.95688208   154.34314856

---------------------------
INTERNAL COORDINATES (A.U.)
---------------------------
 O      0   0   0     0.000000000000     0.00000000     0.00000000
 O      1   0   0     6.658886389312     0.00000000     0.00000000
 O      2   1   0     5.244264187436   112.27075079     0.00000000
 N      1   2   3     6.830868130624    87.37114881   353.32700577
 C      1   2   3     4.477086441468    42.65954937    18.63251466
 C      5   1   2     2.626374525116   149.11688308   217.58250316
 C      1   2   3     2.567886322028    69.92120544     1.49835222
 C      4   1   2     2.507914291521    19.61242272   199.39572089
 C      2   1   3     2.675603409389    48.03839848   290.55305542
 C      3   2   1     2.649705257594    96.36243451   319.37986740
 C      4   1   2     2.520943486420   100.27987600    20.45732853
 C      8   4   1     2.842436331014   118.23401552   178.00756692
 H      9   2   1     2.059908510391   110.84978240   300.60618118
 H      9   2   1     2.063304553408   106.64112506   182.86923019
 H     10   3   2     2.078940398886   111.30067219   289.50003016
 H     10   3   2     2.067904813768   107.99648961   171.90747201
 H     11   4   1     2.052977447892   116.45179806   181.38144358
 H     12   8   4     2.066150261047   111.39892304   241.33394572
 H     12   8   4     2.051182171622   108.93166390     1.06907150
 H     12   8   4     2.066237598958   111.43112546   120.86102338
 H      1   2   3     1.816946639824   160.04802067   272.76538322
 H      2   1   3     1.819929331742    60.75288121   116.70677647
 H      3   2   1     1.831802007711    11.95688208   154.34314856

---------------------
BASIS SET INFORMATION
---------------------
There are 4 groups of distinct atoms

 Group   1 Type O   : 11s6p2d contracted to 5s3p2d pattern {62111/411/11}
 Group   2 Type N   : 11s6p1d contracted to 5s3p1d pattern {62111/411/1}
 Group   3 Type C   : 11s6p1d contracted to 5s3p1d pattern {62111/411/1}
 Group   4 Type H   : 5s contracted to 3s pattern {311}

Atom   0O    basis set group =>   1
Atom   1O    basis set group =>   1
Atom   2O    basis set group =>   1
Atom   3N    basis set group =>   2
Atom   4C    basis set group =>   3
Atom   5C    basis set group =>   3
Atom   6C    basis set group =>   3
Atom   7C    basis set group =>   3
Atom   8C    basis set group =>   3
Atom   9C    basis set group =>   3
Atom  10C    basis set group =>   3
Atom  11C    basis set group =>   3
Atom  12H    basis set group =>   4
Atom  13H    basis set group =>   4
Atom  14H    basis set group =>   4
Atom  15H    basis set group =>   4
Atom  16H    basis set group =>   4
Atom  17H    basis set group =>   4
Atom  18H    basis set group =>   4
Atom  19H    basis set group =>   4
Atom  20H    basis set group =>   4
Atom  21H    basis set group =>   4
Atom  22H    basis set group =>   4
---------------------------------
AUXILIARY/J BASIS SET INFORMATION
---------------------------------
There are 4 groups of distinct atoms

 Group   1 Type O   : 8s3p3d contracted to 6s3p3d pattern {311111/111/111}
 Group   2 Type N   : 8s3p3d contracted to 6s3p3d pattern {311111/111/111}
 Group   3 Type C   : 8s3p3d contracted to 6s3p3d pattern {311111/111/111}
 Group   4 Type H   : 5s2p contracted to 3s1p pattern {311/2}

Atom   0O    basis set group =>   1
Atom   1O    basis set group =>   1
Atom   2O    basis set group =>   1
Atom   3N    basis set group =>   2
Atom   4C    basis set group =>   3
Atom   5C    basis set group =>   3
Atom   6C    basis set group =>   3
Atom   7C    basis set group =>   3
Atom   8C    basis set group =>   3
Atom   9C    basis set group =>   3
Atom  10C    basis set group =>   3
Atom  11C    basis set group =>   3
Atom  12H    basis set group =>   4
Atom  13H    basis set group =>   4
Atom  14H    basis set group =>   4
Atom  15H    basis set group =>   4
Atom  16H    basis set group =>   4
Atom  17H    basis set group =>   4
Atom  18H    basis set group =>   4
Atom  19H    basis set group =>   4
Atom  20H    basis set group =>   4
Atom  21H    basis set group =>   4
Atom  22H    basis set group =>   4


           ************************************************************
           *        Program running with 16 parallel MPI-processes    *
           *              working on a common directory               *
           ************************************************************
------------------------------------------------------------------------------
                             ORCA STARTUP CALCULATIONS
                           -- RI-GTO INTEGRALS CHOSEN --
------------------------------------------------------------------------------
------------------------------------------------------------------------------
                   ___                                                        
                  /   \      - P O W E R E D   B Y -                         
                 /     \                                                     
                 |  |  |   _    _      __       _____    __    __             
                 |  |  |  | |  | |    /  \     |  _  \  |  |  /  |          
                  \  \/   | |  | |   /    \    | | | |  |  | /  /          
                 / \  \   | |__| |  /  /\  \   | |_| |  |  |/  /          
                |  |  |   |  __  | /  /__\  \  |    /   |      \           
                |  |  |   | |  | | |   __   |  |    \   |  |\   \          
                \     /   | |  | | |  |  |  |  | |\  \  |  | \   \       
                 \___/    |_|  |_| |__|  |__|  |_| \__\ |__|  \__/        
                                                                              
                      - O R C A' S   B I G   F R I E N D -                    
                                      &                                       
                       - I N T E G R A L  F E E D E R -                       
                                                                              
 v1 FN, 2020, v2 2021, v3 2022-2024                                           
------------------------------------------------------------------------------


----------------------
SHARK INTEGRAL PACKAGE
----------------------

Number of atoms                             ...     23
Number of basis functions                   ...    276
Number of shells                            ...    144
Maximum angular momentum                    ...      2
Integral batch strategy                     ... SHARK/LIBINT Hybrid
RI-J (if used) integral strategy            ... SPLIT-RIJ (Revised 2003 algorithm where possible)
Printlevel                                  ...      1
Contraction scheme used                     ... SEGMENTED contraction
Prescreening option                         ... SCHWARTZ
   Thresh                                   ... 2.500e-11
   Tcut                                     ... 2.500e-12
   Tpresel                                  ... 2.500e-12 
Coulomb Range Separation                    ... NOT USED
Exchange Range Separation                   ... NOT USED
Multipole approximations                    ... NOT USED
Finite Nucleus Model                        ... NOT USED
CABS basis                                  ... NOT available
Auxiliary Coulomb fitting basis             ... AVAILABLE
   # of basis functions in Aux-J            ...    426
   # of shells in Aux-J                     ...    188
   Maximum angular momentum in Aux-J        ...      2
Auxiliary J/K fitting basis                 ... NOT available
Auxiliary Correlation fitting basis         ... NOT available
Auxiliary 'external' fitting basis          ... NOT available

Checking pre-screening integrals            ... done (  0.0 sec) Dimension = 144
Check shell pair data                       ... done (  0.0 sec)
Shell pair information
Shell pair cut-off parameter TPreSel        ...   2.5e-12
Total number of shell pairs                 ...     10440
Shell pairs after pre-screening             ...      9094
Total number of primitive shell pairs       ...     37972
Primitive shell pairs kept                  ...     22591
          la=0 lb=0:   3575 shell pairs
          la=1 lb=0:   3048 shell pairs
          la=1 lb=1:    644 shell pairs
          la=2 lb=0:   1201 shell pairs
          la=2 lb=1:    514 shell pairs
          la=2 lb=2:    112 shell pairs

Calculating one electron integrals          ... done (  0.0 sec)
Calculating RI/J V-Matrix + Cholesky decomp.... done (  0.0 sec)
Calculating Nuclear repulsion               ... done (  0.0 sec) ENN=    732.007240113690 Eh

Diagonalization of the overlap matrix:
Smallest eigenvalue                        ... 2.681e-05
Time for diagonalization                   ...    0.006 sec
Threshold for overlap eigenvalues          ... 1.000e-07
Number of eigenvalues below threshold      ... 0
Time for construction of square roots      ...    0.003 sec
Total time needed                          ...    0.009 sec

-------------------
DFT GRID GENERATION
-------------------

General Integration Accuracy     IntAcc      ... 4.959
Radial Grid Type                 RadialGrid  ... OptM3 with GC (2021)
Angular Grid (max. ang.)         AngularGrid ... 6 (Lebedev-590)
Angular grid pruning method      GridPruning ... 4 (adaptive)
Weight generation scheme         WeightScheme... mBecke (2022)
Basis function cutoff            BFCut       ... 1.0000e-11
Integration weight cutoff        WCut        ... 1.0000e-14
Partially contracted basis set               ... off
Rotationally invariant grid construction     ... off
Angular grids for H and He will be reduced by one unit
Diffuse basis detected: some atoms will have their outermost
                        angular grid increased by 1.

Total number of grid points                  ...   267399
Total number of batches                      ...     4192
Average number of points per batch           ...       63
Average number of grid points per atom       ...    11626
Initializing property integral containers    ... done (  0.0 sec)

SHARK setup successfully completed in   2.0 seconds

Maximum memory used throughout the entire STARTUP-calculation: 57.8 MB


           ************************************************************
           *        Program running with 16 parallel MPI-processes    *
           *              working on a common directory               *
           ************************************************************
-------------------------------------------------------------------------------
                                 ORCA GUESS
                   Start orbitals & Density for SCF / CASSCF
-------------------------------------------------------------------------------

------------
SCF SETTINGS
------------
Hamiltonian:
 Density Functional     Method          .... DFT(GTOs)
 Exchange Functional    Exchange        .... B973C
 Correlation Functional Correlation     .... B973C
 Gradients option       PostSCFGGA      .... off
 RI-approximation to the Coulomb term is turned on
   Number of AuxJ basis functions       .... 426


General Settings:
 Integral files         IntName         .... m1_00_Vitamin_B6-QM3_000-B97-3C-TZ
 Hartree-Fock type      HFTyp           .... RHF
 Total Charge           Charge          ....    0
 Multiplicity           Mult            ....    1
 Number of Electrons    NEL             ....   90
 Basis Dimension        Dim             ....  276
 Nuclear Repulsion      ENuc            ....    732.0072401137 Eh

Convergence Acceleration:
 AO-DIIS                CNVDIIS         .... on
   Start iteration      DIISMaxIt       ....    12
   Startup error        DIISStart       ....  0.200000
   # of expansion vecs  DIISMaxEq       ....     5
   Bias factor          DIISBfac        ....   1.050
   Max. coefficient     DIISMaxC        ....  10.000
 MO-DIIS                CNVKDIIS        .... off
 Trust-Rad. Augm. Hess. CNVTRAH         .... off
 SOSCF                  CNVSOSCF        .... on
   Start iteration      SOSCFMaxIt      ....   150
   Startup grad/error   SOSCFStart      ....  0.003300
   Hessian update       SOSCFHessUp     .... L-BFGS
 Level Shifting         CNVShift        .... on
   Level shift para.    LevelShift      ....    0.2500
   Turn off err/grad.   ShiftErr        ....    0.0010
 Zerner damping         CNVZerner       .... off
 Static damping         CNVDamp         .... on
   Fraction old density DampFac         ....    0.7000
   Max. Damping (<1)    DampMax         ....    0.9800
   Min. Damping (>=0)   DampMin         ....    0.0000
   Turn off err/grad.   DampErr         ....    0.1000

SCF Procedure:
 Maximum # iterations   MaxIter         ....   800
 SCF integral mode      SCFMode         .... Direct
   Integral package                     .... SHARK and LIBINT hybrid scheme
 Reset frequency        DirectResetFreq ....    20
 Integral Threshold     Thresh          ....  2.500e-11 Eh
 Primitive CutOff       TCut            ....  2.500e-12 Eh

Convergence Tolerance:
 Convergence Check Mode ConvCheckMode   .... Total+1el-Energy
 Convergence forced     ConvForced      .... 0
 Energy Change          TolE            ....  1.000e-08 Eh
 1-El. energy change                    ....  1.000e-05 Eh
 Orbital Gradient       TolG            ....  1.000e-05
 Orbital Rotation angle TolX            ....  1.000e-05
 DIIS Error             TolErr          ....  5.000e-07

--------------------------------
INITIAL GUESS: MINIMAL BASIS EHT
--------------------------------
The minimal basis has 71 functions
EHT matrix was diagonalized
Basis set overlap was calculated now projecting the orbitals
Using GuessMode=FMatrix for the initial guess
C*T matrix was formed
Effective Fockian was calculated
Effective Fockian was diagonalized
Initial density was built
                      ------------------
                      INITIAL GUESS DONE
                      ------------------
             **** ENERGY FILE WAS UPDATED (m1_00_Vitamin_B6-QM3_000-B97-3C-TZ.en.tmp) ****
Finished Guess after   0.1 sec
Maximum memory used throughout the entire GUESS-calculation: 16.1 MB


           ************************************************************
           *        Program running with 16 parallel MPI-processes    *
           *              working on a common directory               *
           ************************************************************

-------------------------------------------------------------------------------------------
                                      ORCA LEAN-SCF
                              memory conserving SCF solver
-------------------------------------------------------------------------------------------

----------------------------------------D-I-I-S--------------------------------------------
Iteration    Energy (Eh)           Delta-E    RMSDP     MaxDP     DIISErr   Damp  Time(sec)
-------------------------------------------------------------------------------------------
               ***  Starting incremental Fock matrix formation  ***
    1    -589.6060473294385247     0.00e+00  8.60e-03  2.68e-01  4.65e-01  0.700   0.3
Warning: op=0 Small HOMO/LUMO gap (   0.087) - skipping pre-diagonalization
         Will do a full diagonalization
    2    -590.2840632891163750    -6.78e-01  9.50e-03  6.44e-01  3.31e-01  0.700   0.3
    3    -590.6489688214585385    -3.65e-01  4.16e-03  1.45e-01  2.32e-01  0.700   0.3
                               ***Turning on AO-DIIS***
    4    -590.8998778069335458    -2.51e-01  2.83e-03  1.67e-01  1.61e-01  0.700   0.3
    5    -591.0765889975805294    -1.77e-01  2.04e-03  1.19e-01  1.12e-01  0.700   0.3
    6    -591.2014544438532084    -1.25e-01  1.30e-03  4.76e-02  7.82e-02  0.700   0.3
    7    -591.2903167200281587    -8.89e-02  3.10e-03  6.51e-02  5.49e-02  0.000   0.3
    8    -591.4954508265404911    -2.05e-01  6.18e-04  4.54e-02  2.00e-02  0.000   0.3
                              *** Initializing SOSCF ***
---------------------------------------S-O-S-C-F--------------------------------------
Iteration    Energy (Eh)           Delta-E    RMSDP     MaxDP     MaxGrad    Time(sec)
--------------------------------------------------------------------------------------
    9    -591.4973530057695825    -1.90e-03  8.78e-05  5.95e-03  2.81e-03     0.3
               *** Restarting incremental Fock matrix formation ***
   10    -591.4973809078408067    -2.79e-05  9.52e-05  6.88e-03  2.55e-04     0.3
   11    -591.4973663841778944     1.45e-05  6.29e-05  4.44e-03  6.90e-04     0.3
   12    -591.4973866660234307    -2.03e-05  2.44e-05  8.62e-04  1.53e-04     0.3
   13    -591.4973847148171444     1.95e-06  2.34e-05  1.40e-03  2.84e-04     0.2
   14    -591.4973872078510340    -2.49e-06  1.56e-05  1.13e-03  3.47e-05     0.2
   15    -591.4973871338704612     7.40e-08  6.17e-06  2.07e-04  4.37e-05     0.2
   16    -591.4973872534694692    -1.20e-07  7.33e-06  4.29e-04  3.77e-06     0.2
   17    -591.4973872462001054     7.27e-09  3.60e-06  2.08e-04  8.22e-06     0.2
                 **** Energy Check signals convergence ****

               *****************************************************
               *                     SUCCESS                       *
               *           SCF CONVERGED AFTER  17 CYCLES          *
               *****************************************************

             **** ENERGY FILE WAS UPDATED (m1_00_Vitamin_B6-QM3_000-B97-3C-TZ.en.tmp) ****

----------------
TOTAL SCF ENERGY
----------------

Total Energy       :       -591.49738724620011 Eh          -16095.46218 eV

Components:
Nuclear Repulsion  :        732.00724011369016 Eh           19918.92966 eV
Electronic Energy  :      -1323.50462735989026 Eh          -36014.39185 eV
One Electron Energy:      -2258.51473864281434 Eh          -61457.31047 eV
Two Electron Energy:        935.01011128292407 Eh           25442.91862 eV

Virial components:
Potential Energy   :      -1180.97982326617921 Eh          -32136.09476 eV
Kinetic Energy     :        589.48243601997922 Eh           16040.63257 eV
Virial Ratio       :          2.00341817008124

DFT components:
N(Alpha)           :       45.000002905998 electrons
N(Beta)            :       45.000002905998 electrons
N(Total)           :       90.000005811997 electrons
E(XC)              :      -79.843362626123 Eh       

---------------
SCF CONVERGENCE
---------------

  Last Energy change         ...   -7.2694e-09  Tolerance :   1.0000e-08
  Last MAX-Density change    ...    2.0764e-04  Tolerance :   1.0000e-07
  Last RMS-Density change    ...    3.6001e-06  Tolerance :   5.0000e-09
  Last DIIS Error            ...    2.8104e-03  Tolerance :   5.0000e-07
  Last Orbital Gradient      ...    8.2211e-06  Tolerance :   1.0000e-05
  Last Orbital Rotation      ...    9.4678e-06  Tolerance :   1.0000e-05


----------------
ORBITAL ENERGIES
----------------

  NO   OCC          E(Eh)            E(eV) 
   0   2.0000     -18.799625      -511.5638 
   1   2.0000     -18.773185      -510.8443 
   2   2.0000     -18.724340      -509.5152 
   3   2.0000     -13.984081      -380.5262 
   4   2.0000      -9.965693      -271.1803 
   5   2.0000      -9.955100      -270.8920 
   6   2.0000      -9.937301      -270.4077 
   7   2.0000      -9.936949      -270.3981 
   8   2.0000      -9.918388      -269.8931 
   9   2.0000      -9.912521      -269.7334 
  10   2.0000      -9.905577      -269.5444 
  11   2.0000      -9.905559      -269.5440 
  12   2.0000      -1.009632       -27.4735 
  13   2.0000      -0.973834       -26.4994 
  14   2.0000      -0.930695       -25.3255 
  15   2.0000      -0.873371       -23.7656 
  16   2.0000      -0.760410       -20.6918 
  17   2.0000      -0.722134       -19.6503 
  18   2.0000      -0.675768       -18.3886 
  19   2.0000      -0.649340       -17.6694 
  20   2.0000      -0.607240       -16.5238 
  21   2.0000      -0.581149       -15.8139 
  22   2.0000      -0.556850       -15.1526 
  23   2.0000      -0.511880       -13.9290 
  24   2.0000      -0.490753       -13.3541 
  25   2.0000      -0.474298       -12.9063 
  26   2.0000      -0.444631       -12.0990 
  27   2.0000      -0.441617       -12.0170 
  28   2.0000      -0.416239       -11.3264 
  29   2.0000      -0.406441       -11.0598 
  30   2.0000      -0.391855       -10.6629 
  31   2.0000      -0.388833       -10.5807 
  32   2.0000      -0.371230       -10.1017 
  33   2.0000      -0.369987       -10.0679 
  34   2.0000      -0.364568        -9.9204 
  35   2.0000      -0.356655        -9.7051 
  36   2.0000      -0.347145        -9.4463 
  37   2.0000      -0.329428        -8.9642 
  38   2.0000      -0.314211        -8.5501 
  39   2.0000      -0.292066        -7.9475 
  40   2.0000      -0.256519        -6.9802 
  41   2.0000      -0.244214        -6.6454 
  42   2.0000      -0.225736        -6.1426 
  43   2.0000      -0.213425        -5.8076 
  44   2.0000      -0.205891        -5.6026 
  45   0.0000      -0.062437        -1.6990 
  46   0.0000      -0.036156        -0.9839 
  47   0.0000      -0.007484        -0.2037 
  48   0.0000       0.017993         0.4896 
  49   0.0000       0.040589         1.1045 
  50   0.0000       0.058356         1.5879 
  51   0.0000       0.065537         1.7834 
  52   0.0000       0.070989         1.9317 
  53   0.0000       0.079013         2.1501 
  54   0.0000       0.091432         2.4880 
  55   0.0000       0.095345         2.5945 
*Only the first 10 virtual orbitals were printed.

                    ********************************
                    * MULLIKEN POPULATION ANALYSIS *
                    ********************************

-----------------------
MULLIKEN ATOMIC CHARGES
-----------------------
   0 O :   -0.581252
   1 O :   -0.599558
   2 O :   -0.527013
   3 N :   -0.038220
   4 C :    0.134800
   5 C :    0.175428
   6 C :    0.327488
   7 C :   -0.038742
   8 C :   -0.360221
   9 C :   -0.351307
  10 C :   -0.204131
  11 C :   -0.733134
  12 H :    0.195127
  13 H :    0.201923
  14 H :    0.152990
  15 H :    0.170582
  16 H :    0.151075
  17 H :    0.191450
  18 H :    0.216001
  19 H :    0.190827
  20 H :    0.466619
  21 H :    0.445554
  22 H :    0.413716
Sum of atomic charges:    0.0000000

--------------------------------
MULLIKEN REDUCED ORBITAL CHARGES
--------------------------------
  0 O s       :     3.778778  s :     3.778778
      pz      :     1.828927  p :     4.738684
      px      :     1.334909
      py      :     1.574848
      dz2     :     0.009493  d :     0.063791
      dxz     :     0.010959
      dyz     :     0.010219
      dx2y2   :     0.017317
      dxy     :     0.015804

  1 O s       :     3.813628  s :     3.813628
      pz      :     1.284804  p :     4.748304
      px      :     1.592868
      py      :     1.870633
      dz2     :     0.003888  d :     0.037626
      dxz     :     0.017245
      dyz     :     0.001452
      dx2y2   :     0.006649
      dxy     :     0.008391

  2 O s       :     3.794902  s :     3.794902
      pz      :     1.543114  p :     4.712617
      px      :     1.732103
      py      :     1.437401
      dz2     :     0.005998  d :     0.019494
      dxz     :     0.003587
      dyz     :    -0.001266
      dx2y2   :     0.003723
      dxy     :     0.007452

  3 N s       :     3.435334  s :     3.435334
      pz      :     1.130990  p :     3.556607
      px      :     1.033362
      py      :     1.392255
      dz2     :     0.005187  d :     0.046280
      dxz     :     0.008128
      dyz     :     0.006528
      dx2y2   :     0.012634
      dxy     :     0.013803

  4 C s       :     3.079282  s :     3.079282
      pz      :     0.985466  p :     2.739084
      px      :     0.983856
      py      :     0.769762
      dz2     :     0.003910  d :     0.046835
      dxz     :     0.007282
      dyz     :     0.005267
      dx2y2   :     0.016757
      dxy     :     0.013619

  5 C s       :     3.044784  s :     3.044784
      pz      :     0.949408  p :     2.732056
      px      :     0.809702
      py      :     0.972946
      dz2     :     0.003898  d :     0.047732
      dxz     :     0.005497
      dyz     :     0.007110
      dx2y2   :     0.014849
      dxy     :     0.016378

  6 C s       :     2.975524  s :     2.975524
      pz      :     0.938269  p :     2.625149
      px      :     0.899524
      py      :     0.787356
      dz2     :     0.005243  d :     0.071840
      dxz     :     0.010499
      dyz     :     0.012877
      dx2y2   :     0.021474
      dxy     :     0.021748

  7 C s       :     3.194113  s :     3.194113
      pz      :     0.991172  p :     2.780978
      px      :     0.817126
      py      :     0.972680
      dz2     :     0.004280  d :     0.063651
      dxz     :     0.007431
      dyz     :     0.008754
      dx2y2   :     0.024516
      dxy     :     0.018669

  8 C s       :     3.350524  s :     3.350524
      pz      :     0.869041  p :     2.943971
      px      :     1.087769
      py      :     0.987162
      dz2     :     0.013039  d :     0.065725
      dxz     :     0.017183
      dyz     :     0.011354
      dx2y2   :     0.009840
      dxy     :     0.014308

  9 C s       :     3.310634  s :     3.310634
      pz      :     0.910914  p :     2.972190
      px      :     0.972344
      py      :     1.088932
      dz2     :     0.020293  d :     0.068482
      dxz     :     0.010927
      dyz     :     0.012550
      dx2y2   :     0.013670
      dxy     :     0.011042

 10 C s       :     3.204373  s :     3.204373
      pz      :     0.981103  p :     2.942263
      px      :     0.962990
      py      :     0.998170
      dz2     :     0.004936  d :     0.057495
      dxz     :     0.007716
      dyz     :     0.004598
      dx2y2   :     0.016321
      dxy     :     0.023924

 11 C s       :     3.406801  s :     3.406801
      pz      :     1.072150  p :     3.289534
      px      :     0.976975
      py      :     1.240408
      dz2     :     0.006279  d :     0.036799
      dxz     :     0.009716
      dyz     :     0.005812
      dx2y2   :     0.010407
      dxy     :     0.004586

 12 H s       :     0.804873  s :     0.804873

 13 H s       :     0.798077  s :     0.798077

 14 H s       :     0.847010  s :     0.847010

 15 H s       :     0.829418  s :     0.829418

 16 H s       :     0.848925  s :     0.848925

 17 H s       :     0.808550  s :     0.808550

 18 H s       :     0.783999  s :     0.783999

 19 H s       :     0.809173  s :     0.809173

 20 H s       :     0.533381  s :     0.533381

 21 H s       :     0.554446  s :     0.554446

 22 H s       :     0.586284  s :     0.586284



                     *******************************
                     * LOEWDIN POPULATION ANALYSIS *
                     *******************************

----------------------
LOEWDIN ATOMIC CHARGES
----------------------
   0 O :   -0.648892
   1 O :   -0.721665
   2 O :   -0.732086
   3 N :   -0.161630
   4 C :    0.000807
   5 C :   -0.035571
   6 C :    0.190959
   7 C :    0.006365
   8 C :    0.043896
   9 C :    0.026719
  10 C :   -0.077257
  11 C :   -0.413725
  12 H :    0.198254
  13 H :    0.192022
  14 H :    0.160733
  15 H :    0.181601
  16 H :    0.161511
  17 H :    0.166530
  18 H :    0.183703
  19 H :    0.165815
  20 H :    0.375649
  21 H :    0.368093
  22 H :    0.368169

-------------------------------
LOEWDIN REDUCED ORBITAL CHARGES
-------------------------------
  0 O s       :     3.515327  s :     3.515327
      pz      :     1.812714  p :     4.793998
      px      :     1.367797
      py      :     1.613487
      dz2     :     0.037105  d :     0.339567
      dxz     :     0.052627
      dyz     :     0.056156
      dx2y2   :     0.099432
      dxy     :     0.094247

  1 O s       :     3.547600  s :     3.547600
      pz      :     1.389375  p :     4.828172
      px      :     1.612078
      py      :     1.826719
      dz2     :     0.094168  d :     0.345893
      dxz     :     0.098315
      dyz     :     0.055199
      dx2y2   :     0.039444
      dxy     :     0.058767

  2 O s       :     3.546118  s :     3.546118
      pz      :     1.638707  p :     4.859946
      px      :     1.722700
      py      :     1.498539
      dz2     :     0.091397  d :     0.326022
      dxz     :     0.053690
      dyz     :     0.064573
      dx2y2   :     0.055340
      dxy     :     0.061021

  3 N s       :     3.214243  s :     3.214243
      pz      :     1.140027  p :     3.860730
      px      :     1.224235
      py      :     1.496468
      dz2     :     0.009569  d :     0.086656
      dxz     :     0.016241
      dyz     :     0.008718
      dx2y2   :     0.024912
      dxy     :     0.027216

  4 C s       :     2.830482  s :     2.830482
      pz      :     0.981624  p :     3.073044
      px      :     1.040851
      py      :     1.050569
      dz2     :     0.007345  d :     0.095667
      dxz     :     0.013237
      dyz     :     0.009693
      dx2y2   :     0.035479
      dxy     :     0.029913

  5 C s       :     2.854666  s :     2.854666
      pz      :     0.949377  p :     3.082234
      px      :     1.045011
      py      :     1.087845
      dz2     :     0.007566  d :     0.098671
      dxz     :     0.009812
      dyz     :     0.013655
      dx2y2   :     0.032566
      dxy     :     0.035072

  6 C s       :     2.776000  s :     2.776000
      pz      :     0.934710  p :     2.873602
      px      :     0.986071
      py      :     0.952822
      dz2     :     0.012739  d :     0.159438
      dxz     :     0.020493
      dyz     :     0.024709
      dx2y2   :     0.050175
      dxy     :     0.051321

  7 C s       :     2.829641  s :     2.829641
      pz      :     0.971794  p :     3.029575
      px      :     1.033265
      py      :     1.024516
      dz2     :     0.009490  d :     0.134419
      dxz     :     0.012931
      dyz     :     0.015954
      dx2y2   :     0.055785
      dxy     :     0.040259

  8 C s       :     2.849809  s :     2.849809
      pz      :     0.927258  p :     2.976745
      px      :     1.035318
      py      :     1.014170
      dz2     :     0.026098  d :     0.129550
      dxz     :     0.035710
      dyz     :     0.022474
      dx2y2   :     0.018704
      dxy     :     0.026564

  9 C s       :     2.853926  s :     2.853926
      pz      :     0.960332  p :     2.984039
      px      :     0.988013
      py      :     1.035694
      dz2     :     0.040113  d :     0.135316
      dxz     :     0.022979
      dyz     :     0.024964
      dx2y2   :     0.027002
      dxy     :     0.020258

 10 C s       :     2.882141  s :     2.882141
      pz      :     0.975991  p :     3.077860
      px      :     1.023293
      py      :     1.078576
      dz2     :     0.008969  d :     0.117257
      dxz     :     0.014725
      dyz     :     0.008623
      dx2y2   :     0.035157
      dxy     :     0.049782

 11 C s       :     2.981833  s :     2.981833
      pz      :     1.127882  p :     3.371967
      px      :     1.076104
      py      :     1.167981
      dz2     :     0.009686  d :     0.059926
      dxz     :     0.016486
      dyz     :     0.008321
      dx2y2   :     0.017487
      dxy     :     0.007945

 12 H s       :     0.801746  s :     0.801746

 13 H s       :     0.807978  s :     0.807978

 14 H s       :     0.839267  s :     0.839267

 15 H s       :     0.818399  s :     0.818399

 16 H s       :     0.838489  s :     0.838489

 17 H s       :     0.833470  s :     0.833470

 18 H s       :     0.816297  s :     0.816297

 19 H s       :     0.834185  s :     0.834185

 20 H s       :     0.624351  s :     0.624351

 21 H s       :     0.631907  s :     0.631907

 22 H s       :     0.631831  s :     0.631831



                      *****************************
                      * MAYER POPULATION ANALYSIS *
                      *****************************

  NA   - Mulliken gross atomic population
  ZA   - Total nuclear charge
  QA   - Mulliken gross atomic charge
  VA   - Mayer's total valence
  BVA  - Mayer's bonded valence
  FA   - Mayer's free valence

  ATOM       NA         ZA         QA         VA         BVA        FA
  0 O      8.5813     8.0000    -0.5813     1.9674     1.9674     0.0000
  1 O      8.5996     8.0000    -0.5996     1.7762     1.7762    -0.0000
  2 O      8.5270     8.0000    -0.5270     1.7370     1.7370    -0.0000
  3 N      7.0382     7.0000    -0.0382     3.2472     3.2472     0.0000
  4 C      5.8652     6.0000     0.1348     3.4553     3.4553    -0.0000
  5 C      5.8246     6.0000     0.1754     3.4190     3.4190     0.0000
  6 C      5.6725     6.0000     0.3275     3.8604     3.8604    -0.0000
  7 C      6.0387     6.0000    -0.0387     3.6773     3.6773    -0.0000
  8 C      6.3602     6.0000    -0.3602     3.6769     3.6769     0.0000
  9 C      6.3513     6.0000    -0.3513     3.9625     3.9625    -0.0000
 10 C      6.2041     6.0000    -0.2041     4.0317     4.0317     0.0000
 11 C      6.7331     6.0000    -0.7331     3.6142     3.6142     0.0000
 12 H      0.8049     1.0000     0.1951     0.9578     0.9578     0.0000
 13 H      0.7981     1.0000     0.2019     0.9192     0.9192     0.0000
 14 H      0.8470     1.0000     0.1530     0.9218     0.9218    -0.0000
 15 H      0.8294     1.0000     0.1706     0.9342     0.9342    -0.0000
 16 H      0.8489     1.0000     0.1511     0.9510     0.9510     0.0000
 17 H      0.8086     1.0000     0.1914     0.9312     0.9312     0.0000
 18 H      0.7840     1.0000     0.2160     0.9669     0.9669     0.0000
 19 H      0.8092     1.0000     0.1908     0.9314     0.9314     0.0000
 20 H      0.5334     1.0000     0.4666     0.7525     0.7525     0.0000
 21 H      0.5544     1.0000     0.4456     0.7762     0.7762    -0.0000
 22 H      0.5863     1.0000     0.4137     0.8435     0.8435    -0.0000

  Mayer bond orders larger than 0.100000
B(  0-O ,  6-C ) :   1.0233 B(  0-O , 20-H ) :   0.7221 B(  1-O ,  8-C ) :   0.9427 
B(  1-O , 21-H ) :   0.7564 B(  1-O , 22-H ) :   0.1272 B(  2-O ,  9-C ) :   1.0952 
B(  2-O , 22-H ) :   0.7153 B(  3-N ,  7-C ) :   1.6576 B(  3-N , 10-C ) :   1.5174 
B(  4-C ,  5-C ) :   1.3281 B(  4-C ,  6-C ) :   1.5239 B(  4-C ,  8-C ) :   0.7752 
B(  5-C ,  9-C ) :   0.8691 B(  5-C , 10-C ) :   1.3717 B(  6-C ,  7-C ) :   1.2282 
B(  7-C , 11-C ) :   0.7741 B(  8-C , 12-H ) :   0.9817 B(  8-C , 13-H ) :   0.9416 
B(  9-C , 14-H ) :   0.9772 B(  9-C , 15-H ) :   0.9397 B( 10-C , 16-H ) :   0.9456 
B( 11-C , 17-H ) :   0.9588 B( 11-C , 18-H ) :   0.9469 B( 11-C , 19-H ) :   0.9651 



------------------
HIRSHFELD ANALYSIS
------------------

Total integrated alpha density =     45.000002906
Total integrated beta density  =     45.000002906

  ATOM     CHARGE      SPIN    
   0 O   -0.185846    0.000000
   1 O   -0.191161    0.000000
   2 O   -0.258438    0.000000
   3 N   -0.189102    0.000000
   4 C   -0.020031    0.000000
   5 C   -0.008646    0.000000
   6 C    0.063562    0.000000
   7 C    0.042871    0.000000
   8 C    0.036983    0.000000
   9 C    0.032176    0.000000
  10 C    0.013976    0.000000
  11 C   -0.076680    0.000000
  12 H    0.032185    0.000000
  13 H    0.043251    0.000000
  14 H    0.018873    0.000000
  15 H    0.038794    0.000000
  16 H    0.041247    0.000000
  17 H    0.034637    0.000000
  18 H    0.048490    0.000000
  19 H    0.034440    0.000000
  20 H    0.165891    0.000000
  21 H    0.171594    0.000000
  22 H    0.110926    0.000000

  TOTAL  -0.000006    0.000000

-------
TIMINGS
-------

Total SCF time: 0 days 0 hours 0 min 5 sec 

Total time                  ....       5.241 sec
Sum of individual times     ....       5.179 sec  ( 98.8%)

SCF preparation             ....       0.129 sec  (  2.5%)
Fock matrix formation       ....       4.252 sec  ( 81.1%)
  Startup                   ....       0.012 sec  (  0.3% of F)
  Split-RI-J                ....       0.663 sec  ( 15.6% of F)
  XC integration            ....       3.363 sec  ( 79.1% of F)
    XC Preparation          ....       0.000 sec  (  0.0% of XC)
    Basis function eval.    ....       0.865 sec  ( 25.7% of XC)
    Density eval.           ....       0.713 sec  ( 21.2% of XC)
    XC-Functional eval.     ....       0.109 sec  (  3.2% of XC)
    XC-Potential eval.      ....       0.701 sec  ( 20.8% of XC)
Diagonalization             ....       0.000 sec  (  0.0%)
Density matrix formation    ....       0.038 sec  (  0.7%)
Total Energy calculation    ....       0.023 sec  (  0.4%)
Population analysis         ....       0.389 sec  (  7.4%)
Orbital Transformation      ....       0.036 sec  (  0.7%)
Orbital Orthonormalization  ....       0.000 sec  (  0.0%)
DIIS solution               ....       0.210 sec  (  4.0%)
SOSCF solution              ....       0.102 sec  (  1.9%)
Finished LeanSCF after   5.3 sec

Maximum memory used throughout the entire LEANSCF-calculation: 43.3 MB


           ************************************************************
           *        Program running with 16 parallel MPI-processes    *
           *              working on a common directory               *
           ************************************************************

------------------------------------------------------------------------------
                         ORCA PROPERTY INTEGRAL CALCULATIONS
------------------------------------------------------------------------------

GBWName                                   ... m1_00_Vitamin_B6-QM3_000-B97-3C-TZ.gbw
Number of atoms                           ...     23
Number of basis functions                 ...    276
Max core memory                           ...   6000 MB

Dipole integrals                          ... YES
Quadrupole integrals                      ...  NO
Linear momentum integrals                 ...  NO
Angular momentum integrals                ...  NO
Higher moments length integrals           ...  NO
Higher moments velocity integrals         ...  NO
Kinetic energy integrals                  ...  NO
GIAO right hand sides                     ...  NO
GIAO dipole derivative integrals          ...  NO
SOC integrals                             ...  NO
EPR diamagnetic integrals (GIAO)          ...  NO
EPR gauge integrals                       ...  NO
Field gradient integrals                  ...  NO (   0 nuclei)
Spin-dipole/Fermi contact integrals       ...  NO (   0 nuclei)
Contact density integrals                 ...  NO (   0 nuclei)
Nucleus-orbit integrals                   ...  NO (   0 nuclei)
Geometric perturbations                   ...  NO (  23 nuclei)

Choice of electric origin   ... Center of mass
Position of electric origin ... ( -0.2613, -0.0289, -0.0913) 
Choice of magnetic origin   ... GIAO
Position of magnetic origin ... (  0.0000,  0.0000,  0.0000) 

Calculating integrals                     ... Electric Dipole (Length)     done (  0.0 sec)

Property integrals calculated in   0.0 sec

Maximum memory used throughout the entire PROPINT-calculation: 16.7 MB


-------------------------------------------------------------------------------
                          DFT DISPERSION CORRECTION                            
                                                                               
                              DFTD3 V3.1  Rev 1                                
                          USING Becke-Johnson damping                          
-------------------------------------------------------------------------------
The B97-3c composite method is recognized
Using three-body term ABC
Active option DFTDOPT                   ...         4   

molecular C6(AA) [au] = 5021.355213 


            DFT-D V3
 parameters
 s6 scaling factor         :     1.0000 
 a1 scaling factor         :     0.3700 
 s8 scaling factor         :     1.5000 
 a2 scaling factor         :     4.1000 
 Damping factor alpha9(ATM):    16.0000 
 ad hoc parameters k1-k3   :    16.0000     1.3333    -4.0000 

 Edisp/kcal,au: -35.157333841344  -0.056026771777 
 E6   /kcal   : -17.929239649 
 E8   /kcal   : -17.286200696 
 E6(ABC)      :   0.058106504 
 % E8         :  49.168121718 
 % E6(ABC)    :  -0.165275626 

-------------------------   ----------------
Dispersion correction           -0.056026772
-------------------------   ----------------

------------------   -----------------
SRB correction            -0.068080010
------------------   -----------------

-------------------------   --------------------
FINAL SINGLE POINT ENERGY      -591.621494027577
-------------------------   --------------------



           ************************************************************
           *        Program running with 16 parallel MPI-processes    *
           *              working on a common directory               *
           ************************************************************
------------------------------------------------------------------------------
                         ORCA SCF GRADIENT CALCULATION
------------------------------------------------------------------------------

Nuc. rep. gradient        (SHARK) ... done (  0.0 sec)
HCore & Overlap gradient  (SHARK) ... done (  0.0 sec)
Split-RIJ-J gradient      (SHARK) ... done (  0.1 sec)
XC gradient                       ... done (  1.6 sec)
Dispersion correction             ... done (  0.0 sec)

-------------------
DISPERSION GRADIENT
-------------------

   1   O   :    0.000644471   -0.000686564    0.000000675
   2   O   :   -0.000226833   -0.000941569   -0.000366526
   3   O   :   -0.000997511    0.000097242   -0.000324375
   4   N   :   -0.000023254    0.001030831   -0.000091809
   5   C   :    0.000205091   -0.000471148    0.000315739
   6   C   :   -0.000525983    0.000743336    0.000252271
   7   C   :    0.000698824   -0.000311672    0.000043210
   8   C   :    0.000679960    0.000475204   -0.000170943
   9   C   :   -0.000010267   -0.001121051    0.000289002
  10   C   :   -0.001059585    0.000351309    0.000238368
  11   C   :   -0.000106659    0.001176142   -0.000024890
  12   C   :    0.000826986    0.000386523   -0.000220590
  13   H   :    0.000034462   -0.000493376    0.000224611
  14   H   :   -0.000081739   -0.000500739    0.000433976
  15   H   :   -0.000486750    0.000076618    0.000402687
  16   H   :   -0.000438292    0.000207512    0.000135415
  17   H   :   -0.000110306    0.000547627   -0.000027431
  18   H   :    0.000401211    0.000095634   -0.000307036
  19   H   :    0.000329662    0.000254966   -0.000098437
  20   H   :    0.000486172    0.000133687    0.000084485
  21   H   :    0.000385990   -0.000346489   -0.000041784
  22   H   :   -0.000096490   -0.000513714   -0.000432672
  23   H   :   -0.000529158   -0.000190309   -0.000313945

Difference to translation invariance:
           :   -0.0000000000   -0.0000000000    0.0000000000

Difference to rotation invariance:
           :    0.0000000000    0.0000000000   -0.0000000000

Norm of the Dispersion gradient    ...    0.0038973701
RMS gradient                       ...    0.0004691882
MAX gradient                       ...    0.0011761418
SRB correction                   ... done

------------------
CARTESIAN GRADIENT
------------------

   1   O   :   -0.000993006    0.006701762   -0.000936667
   2   O   :    0.008911707    0.011960936    0.006873700
   3   O   :    0.011327321   -0.001490675    0.005177271
   4   N   :    0.000086661   -0.006929132    0.000515441
   5   C   :   -0.002142736    0.009921336   -0.004837019
   6   C   :    0.005144346   -0.006814108   -0.001748533
   7   C   :   -0.000189173   -0.012890649    0.001790091
   8   C   :   -0.000932375   -0.000334120    0.000740632
   9   C   :   -0.008882174   -0.005806756   -0.008911483
  10   C   :   -0.008906653   -0.003141302   -0.005690315
  11   C   :   -0.003979052    0.002129470    0.000574882
  12   C   :    0.005669333    0.001868291   -0.001490709
  13   H   :    0.002658282    0.000818164   -0.001122389
  14   H   :   -0.001378355    0.001575432    0.003137625
  15   H   :    0.001709208   -0.002001480   -0.000285384
  16   H   :   -0.000900464    0.003652936    0.001073352
  17   H   :   -0.001239617    0.001494794    0.000228729
  18   H   :   -0.000899077   -0.001290271    0.000236232
  19   H   :   -0.000642501    0.001166446   -0.000011813
  20   H   :   -0.000974486   -0.001321211    0.000403756
  21   H   :   -0.002462466    0.000643565    0.000550307
  22   H   :   -0.000445615   -0.001658602    0.000773423
  23   H   :   -0.000539108    0.001745176    0.002958873

Difference to translation invariance:
           :   -0.0000000000   -0.0000000000   -0.0000000000

Difference to rotation invariance:
           :    0.0000393507   -0.0000142540    0.0000374955

Norm of the Cartesian gradient     ...    0.0366951840
RMS gradient                       ...    0.0044175810
MAX gradient                       ...    0.0128906495

-------
TIMINGS
-------

Total SCF gradient time     ....        1.824 sec

Densities                   ....       0.001 sec  (  0.1%)
One electron gradient       ....       0.036 sec  (  2.0%)
RI-J Coulomb gradient       ....       0.126 sec  (  6.9%)
XC gradient                 ....       1.602 sec  ( 87.8%)

Maximum memory used throughout the entire SCFGRAD-calculation: 51.5 MB
------------------------------------------------------------------------------
                         ORCA GEOMETRY RELAXATION STEP
------------------------------------------------------------------------------

Reading the OPT-File                    .... done
Getting information on internals        .... done
Copying old internal coords+grads       .... done
Making the new internal coordinates     .... (2022 redundants) done
Validating the new internal coordinates .... (2022 redundants) done
Calculating the B-matrix                .... done
Calculating the G,G- and P matrices     .... done
Transforming gradient to internals      .... done
Projecting the internal gradient        .... done
Number of atoms                         ....  23
Number of internal coordinates          .... 104
Current Energy                          ....  -591.621494028 Eh
Current gradient norm                   ....     0.036695184 Eh/bohr
Maximum allowed component of the step   ....  0.300
Current trust radius                    ....  0.300
Evaluating the initial hessian          ....  (Almloef) done
Projecting the Hessian                  .... done
Forming the augmented Hessian           .... done
Diagonalizing the augmented Hessian     .... done
Last element of RFO vector              ....  0.962468990
Lowest eigenvalues of augmented Hessian:
 -0.003883042  0.012496118  0.013233105  0.017083931  0.021586890
Length of the computed step             ....  0.281974466
The final length of the internal step   ....  0.281974466
Converting the step to Cartesian space:
 Initial RMS(Int)=    0.0276498713
Transforming coordinates:
 Iter   0:  RMS(Cart)=    0.0799354174 RMS(Int)=    1.0647518958
 Iter   5:  RMS(Cart)=    0.0000005425 RMS(Int)=    0.0000002863
done
Storing new coordinates                 .... done

                                .--------------------.
          ----------------------|Geometry convergence|-------------------------
          Item                value                   Tolerance       Converged
          ---------------------------------------------------------------------
          RMS gradient        0.0030313276            0.0000300000      NO
          MAX gradient        0.0143737301            0.0001000000      NO
          RMS step            0.0276498713            0.0020000000      NO
          MAX step            0.1284681168            0.0040000000      NO
          ........................................................
          Max(Bonds)      0.0680      Max(Angles)    1.34
          Max(Dihed)        5.01      Max(Improp)    0.00
          ---------------------------------------------------------------------

The optimization has not yet converged - more geometry cycles are needed


    ---------------------------------------------------------------------------
                         Redundant Internal Coordinates
                            (Angstroem and degrees)

        Definition                    Value    dE/dq     Step     New-Value
    ----------------------------------------------------------------------------
     1. B(C   5,C   4)                1.3898 -0.005293  0.0061    1.3959   
     2. B(C   6,C   4)                1.3848 -0.005093  0.0045    1.3894   
     3. B(C   6,O   0)                1.3589 -0.007888  0.0066    1.3655   
     4. B(C   7,C   6)                1.4013 -0.002528  0.0020    1.4033   
     5. B(C   7,N   3)                1.3271 -0.000711  0.0001    1.3272   
     6. B(C   8,O   1)                1.4159 -0.014374  0.0147    1.4305   
     7. B(C   8,C   4)                1.4989 -0.004590  0.0065    1.5054   
     8. B(C   9,C   5)                1.5074  0.000777  0.0001    1.5075   
     9. B(C   9,O   2)                1.4022 -0.011137  0.0109    1.4131   
    10. B(C  10,C   5)                1.3848 -0.001796  0.0016    1.3864   
    11. B(C  10,N   3)                1.3340  0.001697 -0.0016    1.3324   
    12. B(C  11,C   7)                1.5042  0.003293 -0.0042    1.5000   
    13. B(H  12,C   8)                1.0901  0.001292 -0.0019    1.0882   
    14. B(H  13,C   8)                1.0919  0.003266 -0.0048    1.0871   
    15. B(H  14,C   9)                1.1001  0.000527 -0.0008    1.0993   
    16. B(H  15,C   9)                1.0943  0.003772 -0.0056    1.0887   
    17. B(H  16,C  10)                1.0864  0.001939 -0.0028    1.0836   
    18. B(H  17,C  11)                1.0934  0.000175 -0.0003    1.0931   
    19. B(H  18,C  11)                1.0854  0.001058 -0.0015    1.0839   
    20. B(H  19,C  11)                1.0934  0.000116 -0.0002    1.0932   
    21. B(H  20,O   0)                0.9615 -0.002176  0.0022    0.9637   
    22. B(H  21,O   1)                0.9631 -0.000644  0.0007    0.9637   
    23. B(H  22,O   1)                1.8378 -0.004551  0.0680    1.9058   
    24. B(H  22,O   2)                0.9693 -0.006543  0.0055    0.9748   
    25. A(C   6,O   0,H  20)          108.40 -0.002593    0.40    108.80   
    26. A(C   8,O   1,H  21)          108.57  0.000735   -0.12    108.45   
    27. A(C   9,O   2,H  22)          107.90 -0.001634    0.38    108.28   
    28. A(C   7,N   3,C  10)          119.89  0.004155   -0.61    119.27   
    29. A(C   5,C   4,C   8)          121.66  0.001214    0.18    121.85   
[...]
     35      -0.000020   0.000017   0.000120
     36       0.004723  -0.000201   0.000914
     37       0.000415   0.002347  -0.001528
     38       0.004695   0.002036   0.000508
     39      -0.002308  -0.010805  -0.000049
     40       0.000500  -0.000023  -0.000119
     41       0.005043   0.011284   0.000204
     42      -0.002190  -0.000120  -0.000110
     43       0.001549   0.000193  -0.000125
     44      -0.009725  -0.000169   0.000127
     45       0.006902  -0.000023   0.000061
     46      -0.022729  -0.000258   0.000139
     47      -0.005230   0.000009  -0.000013
     48      -0.000607  -0.000101   0.000075
     49       0.001456   0.000297  -0.000197
     50      -0.000021   0.000019  -0.000015
     51      -0.000285   0.000113   0.001627
     52       0.000050  -0.000088   0.000959
     53       0.000414  -0.000117  -0.006018
     54       0.000069   0.000028   0.001368
     55       0.000080   0.000058   0.000834
     56      -0.000009   0.000007  -0.000304
     57      -0.000402   0.000049   0.004169
     58      -0.000041  -0.000008   0.002175
     59      -0.000214  -0.000030   0.004894
     60      -0.000094   0.004598  -0.923926
     61       0.000008   0.001679  -0.302591
     62      -0.000090  -0.000953   0.225432
     63       0.017074  -0.564129  -0.002755
     64      -0.001356  -0.009945   0.000177
     65      -0.019504   0.822678   0.004111
     66       0.393131   0.012134   0.000219
     67      -0.895143  -0.022263  -0.000016
     68      -0.196871  -0.005339   0.000025


-----------
IR SPECTRUM
-----------

 Mode   freq       eps      Int      T**2         TX        TY        TZ
       cm**-1   L/(mol*cm) km/mol    a.u.
----------------------------------------------------------------------------
  6:     83.00   0.000285    1.44  0.001070  ( 0.025580  0.017654 -0.010194)
  7:     86.97   0.000174    0.88  0.000625  (-0.005521 -0.023734 -0.005563)
  8:     92.52   0.000878    4.44  0.002961  (-0.023025 -0.046929 -0.015119)
  9:    147.27   0.000172    0.87  0.000365  (-0.011677 -0.004857  0.014323)
 10:    170.28   0.000358    1.81  0.000656  ( 0.002338  0.002802  0.025361)
 11:    199.69   0.000086    0.43  0.000134  ( 0.002854 -0.005995  0.009465)
 12:    251.46   0.000293    1.48  0.000363  ( 0.004263  0.018046 -0.004428)
 13:    294.35   0.000467    2.36  0.000495  ( 0.012408 -0.015663  0.009784)
 14:    305.71   0.003163   15.99  0.003229  ( 0.027451 -0.049257  0.007004)
 15:    323.15   0.002693   13.61  0.002600  ( 0.022115 -0.036655  0.027707)
 16:    339.19   0.003640   18.39  0.003349  ( 0.007562  0.015750  0.055167)
 17:    342.80   0.014690   74.24  0.013373  (-0.007266  0.063192  0.096577)
 18:    371.87   0.010837   54.77  0.009094  (-0.049498  0.079043 -0.019905)
 19:    429.93   0.001190    6.01  0.000864  ( 0.002441 -0.021357 -0.020042)
 20:    496.88   0.002992   15.12  0.001879  ( 0.020704 -0.038086  0.000431)
 21:    522.14   0.000530    2.68  0.000317  ( 0.007626 -0.012940 -0.009554)
 22:    529.87   0.001086    5.49  0.000640  (-0.013586  0.019556 -0.008530)
 23:    597.77   0.000990    5.01  0.000517  ( 0.017585  0.008034  0.011972)
 24:    625.87   0.019169   96.87  0.009558  (-0.064118 -0.065936  0.033156)
 25:    645.83   0.000720    3.64  0.000348  ( 0.016810 -0.002289 -0.007766)
 26:    689.68   0.008776   44.35  0.003971  ( 0.040215  0.029600 -0.038442)
 27:    745.45   0.001770    8.95  0.000741  (-0.020428 -0.014461  0.010706)
 28:    799.07   0.000275    1.39  0.000107  (-0.007235  0.002089  0.007117)
 29:    884.53   0.003156   15.95  0.001114  (-0.025368  0.018154 -0.011852)
 30:    902.66   0.001510    7.63  0.000522  ( 0.007588  0.007123  0.020343)
 31:    938.11   0.007627   38.54  0.002537  (-0.042475 -0.013864 -0.023251)
 32:    963.17   0.001877    9.49  0.000608  ( 0.008183  0.005499  0.022606)
 33:    988.81   0.007970   40.28  0.002515  ( 0.025361  0.022213  0.037130)
 34:   1021.30   0.003840   19.40  0.001173  ( 0.022390 -0.011045  0.023451)
 35:   1030.88   0.020477  103.48  0.006199  (-0.052407 -0.035037 -0.047164)
 36:   1047.03   0.000516    2.61  0.000154  ( 0.003815  0.002402  0.011550)
 37:   1089.40   0.001550    7.83  0.000444  (-0.017212  0.011910  0.002436)
 38:   1189.24   0.006726   33.99  0.001765  ( 0.008417 -0.038347 -0.014958)
 39:   1223.23   0.005133   25.94  0.001310  (-0.021151 -0.023926 -0.017021)
 40:   1246.53   0.001605    8.11  0.000402  ( 0.015097 -0.012404  0.004481)
 41:   1248.34   0.027051  136.70  0.006762  (-0.045052  0.068754 -0.002329)
 42:   1270.56   0.002319   11.72  0.000570  (-0.007827 -0.020558  0.009257)
 43:   1307.79   0.001019    5.15  0.000243  (-0.009066 -0.008649  0.009275)
 44:   1340.05   0.008737   44.15  0.002035  ( 0.036322 -0.026743 -0.000258)
 45:   1370.37   0.003967   20.05  0.000903  (-0.029761 -0.002660 -0.003249)
 46:   1374.39   0.000528    2.67  0.000120  ( 0.007128  0.005215 -0.006480)
 47:   1402.95   0.002574   13.01  0.000572  (-0.018102  0.012434  0.009498)
 48:   1408.03   0.009850   49.78  0.002183  (-0.029596 -0.031782 -0.017234)
 49:   1419.67   0.023666  119.60  0.005202  ( 0.064737 -0.031617 -0.003415)
 50:   1470.44   0.013496   68.21  0.002864  (-0.047652 -0.005820 -0.023657)
 51:   1482.72   0.002673   13.51  0.000563  (-0.006667  0.022713  0.001509)
 52:   1497.97   0.001905    9.63  0.000397  ( 0.004359  0.002276  0.019303)
 53:   1503.76   0.000517    2.61  0.000107  ( 0.003165  0.009854  0.000418)
 54:   1510.18   0.000661    3.34  0.000137  ( 0.009584 -0.002712 -0.006112)
 55:   1525.92   0.000967    4.89  0.000198  (-0.001183 -0.005795  0.012756)
 56:   1582.62   0.002307   11.66  0.000455  (-0.009423  0.019110 -0.000937)
 57:   1625.24   0.001407    7.11  0.000270  ( 0.015473  0.002086 -0.005146)
 58:   2927.65   0.013696   69.21  0.001460  (-0.010107 -0.006465  0.036276)
 59:   2972.18   0.006610   33.41  0.000694  (-0.025562  0.004703  0.004301)
 60:   3018.89   0.004345   21.96  0.000449  ( 0.004241  0.002625  0.020599)
 61:   3040.75   0.006577   33.24  0.000675  ( 0.001974 -0.014455  0.021499)
 62:   3053.17   0.006446   32.57  0.000659  ( 0.012164 -0.021845 -0.005803)
 63:   3083.68   0.002269   11.47  0.000230  ( 0.013573 -0.005560 -0.003801)
 64:   3110.18   0.005937   30.00  0.000596  ( 0.017457 -0.016919 -0.002178)
 65:   3115.04   0.000967    4.89  0.000097  ( 0.003956  0.008811 -0.001901)
 66:   3583.13   0.032038  161.91  0.002790  ( 0.022530 -0.046723 -0.009979)
 67:   3736.55   0.003976   20.09  0.000332  (-0.002108  0.006049  0.017060)
 68:   3751.96   0.012108   61.19  0.001007  (-0.031145 -0.000262  0.006082)

* The epsilon (eps) is given for a Dirac delta lineshape.
** The dipole moment derivative (T) already includes vibrational overlap.

The first frequency considered to be a vibration is 6
The total number of vibrations considered is 63


--------------------------
THERMOCHEMISTRY AT 298.15K
--------------------------

Temperature         ...   298.15 K
Pressure            ...     1.00 atm
Total Mass          ...   169.18 AMU
Quasi RRHO          ...     True
Cut-Off Frequency   ...     1.00 cm^-1

Throughout the following assumptions are being made:
  (1) The electronic state is orbitally nondegenerate
  (2) There are no thermally accessible electronically excited states
  (3) Hindered rotations indicated by low frequency modes are not
      treated as such but are treated as vibrations and this may
      cause some error
  (4) All equations used are the standard statistical mechanics
      equations for an ideal gas
  (5) All vibrations are strictly harmonic

freq.      83.00  E(vib)   ...       0.48 
freq.      86.97  E(vib)   ...       0.48 
freq.      92.52  E(vib)   ...       0.47 
freq.     147.27  E(vib)   ...       0.41 
freq.     170.28  E(vib)   ...       0.38 
freq.     199.69  E(vib)   ...       0.35 
freq.     251.46  E(vib)   ...       0.30 
freq.     294.35  E(vib)   ...       0.27 
freq.     305.71  E(vib)   ...       0.26 
freq.     323.15  E(vib)   ...       0.25 
freq.     339.19  E(vib)   ...       0.23 
freq.     342.80  E(vib)   ...       0.23 
freq.     371.87  E(vib)   ...       0.21 
freq.     429.93  E(vib)   ...       0.18 
freq.     496.88  E(vib)   ...       0.14 
freq.     522.14  E(vib)   ...       0.13 
freq.     529.87  E(vib)   ...       0.13 
freq.     597.77  E(vib)   ...       0.10 
freq.     625.87  E(vib)   ...       0.09 
freq.     645.83  E(vib)   ...       0.09 
freq.     689.68  E(vib)   ...       0.07 
freq.     745.45  E(vib)   ...       0.06 
freq.     799.07  E(vib)   ...       0.05 
freq.     884.53  E(vib)   ...       0.04 
freq.     902.66  E(vib)   ...       0.03 
freq.     938.11  E(vib)   ...       0.03 
freq.     963.17  E(vib)   ...       0.03 
freq.     988.81  E(vib)   ...       0.02 
freq.    1021.30  E(vib)   ...       0.02 
freq.    1030.88  E(vib)   ...       0.02 
freq.    1047.03  E(vib)   ...       0.02 
freq.    1089.40  E(vib)   ...       0.02 
freq.    1189.24  E(vib)   ...       0.01 
freq.    1223.23  E(vib)   ...       0.01 
freq.    1246.53  E(vib)   ...       0.01 
freq.    1248.34  E(vib)   ...       0.01 
freq.    1270.56  E(vib)   ...       0.01 
freq.    1307.79  E(vib)   ...       0.01 
freq.    1340.05  E(vib)   ...       0.01 
freq.    1370.37  E(vib)   ...       0.01 
freq.    1374.39  E(vib)   ...       0.01 
freq.    1402.95  E(vib)   ...       0.00 
freq.    1408.03  E(vib)   ...       0.00 
freq.    1419.67  E(vib)   ...       0.00 
freq.    1470.44  E(vib)   ...       0.00 
freq.    1482.72  E(vib)   ...       0.00 
freq.    1497.97  E(vib)   ...       0.00 
freq.    1503.76  E(vib)   ...       0.00 
freq.    1510.18  E(vib)   ...       0.00 
freq.    1525.92  E(vib)   ...       0.00 
freq.    1582.62  E(vib)   ...       0.00 
freq.    1625.24  E(vib)   ...       0.00 
freq.    2927.65  E(vib)   ...       0.00 
freq.    2972.18  E(vib)   ...       0.00 
freq.    3018.89  E(vib)   ...       0.00 
freq.    3040.75  E(vib)   ...       0.00 
freq.    3053.17  E(vib)   ...       0.00 
freq.    3083.68  E(vib)   ...       0.00 
freq.    3110.18  E(vib)   ...       0.00 
freq.    3115.04  E(vib)   ...       0.00 
freq.    3583.13  E(vib)   ...       0.00 
freq.    3736.55  E(vib)   ...       0.00 
freq.    3751.96  E(vib)   ...       0.00 

------------
INNER ENERGY
------------

The inner energy is: U= E(el) + E(ZPE) + E(vib) + E(rot) + E(trans)
    E(el)   - is the total energy from the electronic structure calculation
              = E(kin-el) + E(nuc-el) + E(el-el) + E(nuc-nuc)
    E(ZPE)  - the the zero temperature vibrational energy from the frequency calculation
    E(vib)  - the the finite temperature correction to E(ZPE) due to population
              of excited vibrational states
    E(rot)  - is the rotational thermal energy
    E(trans)- is the translational thermal energy

Summary of contributions to the inner energy U:
Electronic energy                ...   -591.62429495 Eh
Zero point energy                ...      0.18532853 Eh     116.30 kcal/mol
Thermal vibrational correction   ...      0.00907578 Eh       5.70 kcal/mol
Thermal rotational correction    ...      0.00141627 Eh       0.89 kcal/mol
Thermal translational correction ...      0.00141627 Eh       0.89 kcal/mol
-----------------------------------------------------------------------
Total thermal energy                   -591.42705809 Eh


Summary of corrections to the electronic energy:
(perhaps to be used in another calculation)
Total thermal correction                  0.01190833 Eh       7.47 kcal/mol
Non-thermal (ZPE) correction              0.18532853 Eh     116.30 kcal/mol
-----------------------------------------------------------------------
Total correction                          0.19723686 Eh     123.77 kcal/mol


--------
ENTHALPY
--------

The enthalpy is H = U + kB*T
                kB is Boltzmann's constant
Total thermal energy              ...   -591.42705809 Eh 
Thermal Enthalpy correction       ...      0.00094421 Eh       0.59 kcal/mol
-----------------------------------------------------------------------
Total Enthalpy                    ...   -591.42611388 Eh


Note: Only C1 symmetry has been detected, increase convergence thresholds 
      if your molecule has a higher symmetry. Symmetry factor of 1.0 is   
      used for the rotational entropy correction. 
 

Note: Rotational entropy computed according to Herzberg 
Infrared and Raman Spectra, Chapter V,1, Van Nostrand Reinhold, 1945 
Point Group:  C1, Symmetry Number:   1  
Rotational constants in cm-1:     0.049194     0.025202     0.017829 

Vibrational entropy computed according to the QRRHO of S. Grimme
Chem.Eur.J. 2012 18 9955 using a reference frequency of 100.0 cm-1


-------
ENTROPY
-------

The entropy contributions are T*S = T*(S(el)+S(vib)+S(rot)+S(trans))
     S(el)   - electronic entropy
     S(vib)  - vibrational entropy
     S(rot)  - rotational entropy
     S(trans)- translational entropy
The entropies will be listed as multiplied by the temperature to get
units of energy

Electronic entropy                ...      0.00000000 Eh      0.00 kcal/mol
Vibrational entropy               ...      0.01540970 Eh      9.67 kcal/mol
Rotational entropy                ...      0.01457149 Eh      9.14 kcal/mol
Translational entropy             ...      0.01961591 Eh     12.31 kcal/mol
-----------------------------------------------------------------------
Final entropy term                ...      0.04959710 Eh     31.12 kcal/mol

In case the symmetry of your molecule has not been determined correctly
or in case you have a reason to use a different symmetry number we print 
out the resulting rotational entropy values for sn=1,12:

 non-linear molecules -----------------------------------
|  sn= 1 | S(rot)=       0.01457149 Eh      9.14 kcal/mol|
|  sn= 2 | S(rot)=       0.01391704 Eh      8.73 kcal/mol|
|  sn= 3 | S(rot)=       0.01353421 Eh      8.49 kcal/mol|
|  sn= 4 | S(rot)=       0.01326258 Eh      8.32 kcal/mol|
|  sn= 5 | S(rot)=       0.01305189 Eh      8.19 kcal/mol|
|  sn= 6 | S(rot)=       0.01287975 Eh      8.08 kcal/mol|
|  sn= 7 | S(rot)=       0.01273420 Eh      7.99 kcal/mol|
|  sn= 8 | S(rot)=       0.01260813 Eh      7.91 kcal/mol|
|  sn= 9 | S(rot)=       0.01249692 Eh      7.84 kcal/mol|
|  sn=10 | S(rot)=       0.01239744 Eh      7.78 kcal/mol|
|  sn=11 | S(rot)=       0.01230745 Eh      7.72 kcal/mol|
|  sn=12 | S(rot)=       0.01222529 Eh      7.67 kcal/mol|
 linear molecules ---------------------------------------
|  Dinfh | S(rot)=       0.00912794 Eh      5.73 kcal/mol|
|  Cinfv | S(rot)=       0.00978239 Eh      6.14 kcal/mol|
 --------------------------------------------------------


-------------------
GIBBS FREE ENERGY
-------------------

The Gibbs free energy is G = H - T*S

Total enthalpy                    ...   -591.42611388 Eh 
Total entropy correction          ...     -0.04959710 Eh    -31.12 kcal/mol
-----------------------------------------------------------------------
Final Gibbs free energy         ...   -591.47571099 Eh

For completeness - the Gibbs free energy minus the electronic energy
G-E(el)                           ...      0.14858396 Eh     93.24 kcal/mol


Maximum memory used throughout the entire PROP-calculation: 69.7 MB

--------------------------------
SUGGESTED CITATIONS FOR THIS RUN
--------------------------------

Below you find a list of papers that are relevant to this ORCA run
We neither can nor want to force you to cite these papers, but we appreciate if you do
You receive ORCA, which is the product of decades of hard work by many enthusiastic individuals, for free
The only thing we kindly ask in return is that you cite our papers,
We deeply appreciate it, if you show your appreciation for ORCA by not just citing the generic ORCA reference.

Please note that relegating all ORCA citations to the supporting information does *not* help us.
SI sections are not indexed - citations you put there will not count into any citation statistics
But we need these citations in order to attract the funding resources that allow us to do what we are doing

Therefore, if you are a happy ORCA user, please consider citing a few of the papers listed below in the main body of your paper

In addition to the list printed below, the program has created the file m1_00_Vitamin_B6-QM3_000-B97-3C-TZ.bibtex that contains the list in bibtex format
You can import this file easily into all common literature databanks and citation aid programs


List of essential papers. We consider these as the minimum necessary citations

  1. Neese,F.
     Software update: the ORCA program system, version 5.0
     WIRES Comput. Molec. Sci., 2022 12(1)e1606
     doi.org/10.1002/wcms.1606

List of papers to cite with high priority. The work reported in these papers was absolutely
necessary for this run to complete.
Our perspective: the developers of density functionals and basis sets usually get cited in chemistry papers
Good! But without the algorithms to do something with them, the functionals or basis sets would not do anything.
Hence, in our opinion, the algorithm design and method developments papers are equally worthy of getting cited

  1. Neese,F.
     An improvement of the resolution of the identity approximation for the formation of the Coulomb matrix
     J. Comp. Chem., 2003 24(14)1740-1747
     doi.org/10.1002/jcc.10318
  2. Bykov,D.; Petrenko,T.; Izsak,R.; Kossmann,S.; Becker,U.; Valeev,E.; Neese,F.
     Efficient implementation of the analytic second derivatives of Hartree-Fock and hybrid DFT energies: a detailed analysis of different approximations
     Molec. Phys., 2015 113 1961-1977
     doi.org/10.1080/00268976.2015.1025114
  3. Neese,F.
     The SHARK Integral Generation and Digestion System
     J. Comp. Chem., 2022  1-16
     doi.org/10.1002/jcc.26942
  4. Grimme,S.; Antony,J.; Ehrlich,S.; Krieg,H.
     A consistent and accurate ab initio parametrization of density functional dispersion correction (DFT-D) for the 94 elements H-Pu
     J. Chem. Phys., 2010 132 154104
     doi.org/10.1063/1.3382344
  5. Grimme,S.; Ehrlich,S.; Goerigk,L.
     Effect of the damping function in dispersion corrected density functional theory
     J. Comput. Chem., 2011 32(7)1456-1465
     doi.org/10.1002/jcc.21759

List of suggested additional citations. These are papers that are important in the 'surrounding' of 
of this run, or papers that preceded the highly important papers. If you like your results we are grateful for a citation.

  1. Neese,F.
     The ORCA program system
     WIRES Comput. Molec. Sci., 2012 2(1)73-78
     doi.org/10.1002/wcms.81
  2. Neese,F.
     Software update: the ORCA program system, version 4.0
     WIRES Comput. Molec. Sci., 2018 8(1)1-6
     doi.org/10.1002/wcms.1327
  3. Neese,F.; Wennmohs,F.; Becker,U.; Riplinger,C.
     The ORCA quantum chemistry program package
     J. Chem. Phys., 2020 152 Art. No. L224108
     doi.org/10.1063/5.0004608

List of optional additional citations

  1. Neese,F.
     Approximate second-order SCF convergence for spin unrestricted wavefunctions
     Chem. Phys. Lett., 2000 325(1-3)93-98
     doi.org/10.1016/s0009-2614(00)00662-x

Timings for individual modules:

Sum of individual times          ...      144.779 sec (=   2.413 min)
Startup calculation              ...       22.170 sec (=   0.369 min)  15.3 %
SCF iterations                   ...       30.737 sec (=   0.512 min)  21.2 %
Property integrals               ...       34.041 sec (=   0.567 min)  23.5 %
SCF Response                     ...       24.171 sec (=   0.403 min)  16.7 %
Property calculations            ...       15.434 sec (=   0.257 min)  10.7 %
SCF Gradient evaluation          ...       18.185 sec (=   0.303 min)  12.6 %
Geometry relaxation              ...        0.041 sec (=   0.001 min)   0.0 %
                             ****ORCA TERMINATED NORMALLY****
TOTAL RUN TIME: 0 days 0 hours 2 minutes 26 seconds 764 msec
