
                                 *****************
                                 * O   R   C   A *
                                 *****************

                                            #,                                       
                                            ###                                      
                                            ####                                     
                                            #####                                    
                                            ######                                   
                                           ########,                                 
                                     ,,################,,,,,                         
                               ,,#################################,,                 
                          ,,##########################################,,             
                       ,#########################################, ''#####,          
                    ,#############################################,,   '####,        
                  ,##################################################,,,,####,       
                ,###########''''           ''''###############################       
              ,#####''   ,,,,##########,,,,          '''####'''          '####       
            ,##' ,,,,###########################,,,                        '##       
           ' ,,###''''                  '''############,,,                           
         ,,##''                                '''############,,,,        ,,,,,,###''
      ,#''                                            '''#######################'''  
     '                                                          ''''####''''         
             ,#######,   #######,   ,#######,      ##                                
            ,#'     '#,  ##    ##  ,#'     '#,    #''#        ,####,   ,####,        
            ##       ##  ##   ,#'  ##            #'  '#       #'       #'  '#        
            ##       ##  #######   ##           ,######,      #####,   #    #        
            '#,     ,#'  ##    ##  '#,     ,#' ,#      #,     #,   #   #,  ,#        
             '#######'   ##     ##  '#######'  #'      '#     '####' # '####'        



                #########################################################
                #                        -***-                          #
                #          Department of theory and spectroscopy        #
                #                                                       #
                #                      Frank Neese                      #
                #                                                       #
                #     Directorship, Architecture, Infrastructure        #
                #                    SHARK, DRIVERS                     #
                #        Core code/Algorithms in most modules           #
                #                                                       #
                #        Max Planck Institute fuer Kohlenforschung      #
                #                Kaiser Wilhelm Platz 1                 #
                #                 D-45470 Muelheim/Ruhr                 #
                #                      Germany                          #
                #                                                       #
                #                  All rights reserved                  #
                #                        -***-                          #
                #########################################################


                         Program Version 6.0.1  -  RELEASE   -


 With contributions from (in alphabetic order):
[Max-Planck-Institut fuer Kohlenforschung]                               
  Daniel Aravena         : Magnetic Suceptibility                        
  Michael Atanasov       : Ab Initio Ligand Field Theory (pilot matlab implementation)
  Alexander A. Auer      : GIAO ZORA, VPT2 properties, NMR spectrum      
  Ute Becker             : All parallelization in ORCA, NUMFREQ, NUMCALC 
  Giovanni Bistoni       : ED, misc. LED, open-shell LED, HFLD           
  Martin Brehm           : Molecular dynamics                            
  Dmytro Bykov           : pre 5.0 version of the SCF Hessian            
  Marcos Casanova-Páez   : Triplet and SCS-CIS(D). UHF-(DLPNO)-IP/EA/STEOM-CCSD. UHF-CVS-IP/STEOM-CCSD   
  Vijay G. Chilkuri      : MRCI spin determinant printing, contributions to CSF-ICE 
  Pauline Colinet        : FMM embedding                                 
  Dipayan Datta          : RHF DLPNO-CCSD density                        
  Achintya Kumar Dutta   : EOM-CC, STEOM-CC                              
  Nicolas Foglia         : Exact transition moments, OPA infrastructure, MCD improvements    
  Dmitry Ganyushin       : Spin-Orbit,Spin-Spin,Magnetic field MRCI      
  Miquel Garcia-Rates    : C-PCM and meta-GGA Hessian, CCSD/C-PCM, Gaussian charge scheme 
  Tiago L. C. Gouveia    : GS-ROHF, GS-ROCIS                             
  Yang Guo               : DLPNO-NEVPT2, F12-NEVPT2, CIM, IAO-localization        
  Andreas Hansen         : Spin unrestricted coupled pair/coupled cluster methods 
  Ingolf Harden          : AUTO-CI MPn and infrastructure                
  Benjamin Helmich-Paris : MC-RPA, TRAH-(SCF,CASSCF), AVAS, COSX integrals, SCF dyn. polar. 
  Lee Huntington         : MR-EOM, pCC                                   
  Robert Izsak           : Overlap fitted RIJCOSX, COSX-SCS-MP3, EOM     
  Riya Kayal             : Wick's Theorem for AUTO-CI, AUTO-CI UHF-CCSDT 
  Emily Kempfer          : AUTO-CI, RHF CISDT and CCSDT                  
  Christian Kollmar      : KDIIS, OOCD, Brueckner-CCSD(T), CCSD density, CASPT2, CASPT2-K, improved NEVPT2 
  Axel Koslowski         : Symmetry handling                             
  Simone Kossmann        : meta-GGA functionals, TD-DFT gradient, OOMP2, (MP2 Hessian; deprecated post 5.0) 
  Lucas Lang             : DCDCAS                                        
  Marvin Lechner         : AUTO-CI (C++ implementation), FIC-MRCC        
  Spencer Leger          : CASSCF response                               
  Dagmar Lenk            : GEPOL surface, SMD, ORCA-2-JSON               
  Dimitrios Liakos       : Extrapolation schemes; Compound Job, initial MDCI parallelization 
  Dimitrios Manganas     : Further ROCIS development; embedding schemes. LFT, Crystal Embedding 
  Dimitrios Pantazis     : SARC Basis sets                               
  Anastasios Papadopoulos: AUTO-CI, single reference methods and gradients 
  Taras Petrenko         : pre 6.0 DFT Hessian and TD-DFT gradient, (ASA, deprecated), ECA, 1-Electron XAS/XES, NRVS 
  Peter Pinski           : DLPNO-MP2, DLPNO-MP2 Gradient                 
  Christoph Reimann      : Effective Core Potentials                     
  Marius Retegan         : Local ZFS, SOC                                
  Christoph Riplinger    : Optimizer, TS searches, QM/MM, DLPNO-CCSD(T), (RO)-DLPNO pert. Triples 
  Michael Roemelt        : Original ROCIS implementation                 
  Masaaki Saitow         : Open-shell DLPNO-CCSD energy and density      
  Barbara Sandhoefer     : DKH picture change effects                    
  Kantharuban Sivalingam : CASSCF convergence/infrastructure, NEVPT2 and variants, FIC-MRCI 
  Bernardo de Souza      : ESD, SOC TD-DFT                               
  Georgi L. Stoychev     : AutoAux, RI-MP2 NMR, DLPNO-MP2 response, X2C  
  Van Anh Tran           : RI-MP2 g-tensors                              
  Willem Van den Heuvel  : Paramagnetic NMR                              
  Zikuan Wang            : NOTCH, Electric field optimization            
  Frank Wennmohs         : Technical directorship and infrastructure     
  Hang Xu                : AUTO-CI-Response properties                   
                                                                         
[FACCTs GmbH]                                                            
  Markus Bursch, Miquel Garcia-Rates, Christoph Riplinger, Bernardo de Souza, Georgi L. Stoychev 
                                                                 
  APM, Basis sets (HGBS, AHGBS, def-TZVP (Ac-Lr), def2-XVPD (La-Lu)), CI-OPT, improved COSX, DLPNO-Multilevel,           
  DOCKER, DRACO, updates on ESD, GOAT, IRC, LR-CPCM, MBIS, meta-GGA TD-DFT gradient, ML-optimized integration grids, 
  MM, NACMEs, nearIR, NEB, NEB-TS, NL-DFT gradient (VV10), 2- and 3-layer-ONIOM, interface openCOSMO-RS, QMMM,   
  Crystal-QMMM, SF, symmetry and pop. for TD-DFT, r2SCAN hybrids, SOLVATOR                                   
                                                                         
[Other institutions]                                                     
  V. Asgeirsson          : NEB                                           
  Christoph Bannwarth    : sTDA-DFT, sTD-DFT, PBEh-3c, B97-3c, D3        
  Sebastian Ehlert       : rSCAN, r2SCAN, r2SCAN-3c, D4, dhf basis sets  
  Marvin Friede          : D4 for Fr, Ra, Ac-Lr                          
  Lars Goerigk           : TD-DFT with DH, B97 family of functionals     
  Stefan Grimme          : VdW corrections, initial TS optimization, DFT functionals, gCP, sTDA/sTD-DF 
  Waldemar Hujo          : DFT-NL                                        
  H. Jonsson             : NEB                                           
  Holger Kruse           : gCP                                           
  Marcel Mueller         : wB97X-3c, vDZP basis set                      
  Hagen Neugebauer       : wr2SCAN                                       
  Tobias Risthaus        : range-separated hybrid DFT                    
  Lukas Wittmann         : regularized MP2, r2SCAN double-hybrids, wr2SCAN        
                                                                         
We gratefully acknowledge several colleagues who have allowed us to      
interface, adapt or use parts of their codes:                            
  Ed Valeev, F. Pavosevic, A. Kumar             : LibInt (2-el integral package), F12 methods 
  Garnet Chan, S. Sharma, J. Yang, R. Olivares  : DMRG                   
  Ulf Ekstrom                                   : XCFun DFT Library      
  Mihaly Kallay                                 : mrcc  (arbitrary order and MRCC methods)
  Frank Weinhold                                : gennbo (NPA and NBO analysis)           
  Simon Mueller                                 : openCOSMO-RS                            
  Christopher J. Cramer and Donald G. Truhlar   : smd solvation model                     
  S Lehtola, MJT Oliveira, MAL Marques          : LibXC Library                           
  Liviu Ungur et al                             : ANISO software                          


 Your calculation uses the libint2 library for the computation of 2-el integrals
 For citations please refer to: http://libint.valeyev.net

 Your ORCA version has been built with support for libXC version: 6.2.2
 For citations please refer to: https://libxc.gitlab.io

 This ORCA versions uses:
   CBLAS   interface :  Fast vector & matrix operations
   LAPACKE interface :  Fast linear algebra routines
   SCALAPACK package :  Parallel linear algebra routines
   Shared memory     :  Shared parallel matrices
   BLAS/LAPACK       :  OpenBLAS 0.3.27  USE64BITINT DYNAMIC_ARCH NO_AFFINITY Zen SINGLE_THREADED
        Core in use  :  Zen
   Copyright (c) 2011-2014, The OpenBLAS Project


NOTE: MaxCore=6000 MB was set to SCF,MP2,MDCI,CIPSI,MRCI and CIS
      => If you want to overwrite this, your respective input block should be placed after the MaxCore statement
Your calculation utilizes the atom-pairwise dispersion correction
with the Becke-Johnson damping scheme (D3BJ)


Your calculation employs the composite approach B97-3c by Grimme and coworkers.
For the correct reference, please check the publication list of the Grimme group:
http://www.thch.uni-bonn.de/tc/index.php?section=publikationen&subsection=grimme#2017
   

XCFun DFT library Copyright 2009-2010 Ulf Ekstrom and contributors.
See http://admol.org/xcfun for more information.
This is free software; see the source code for copying conditions.
There is ABSOLUTELY NO WARRANTY; not even for MERCHANTABILITY or FITNESS FOR A PARTICULAR PURPOSE.
For details see the documentation.
Scientific users of this library should cite U. Ekstrom, L. Visscher, R. Bast, A. J. Thorvaldsen and K. Ruud;
J.Chem.Theor.Comp. 2010, DOI: 10.1021/ct100117s
XCFun Version 0.99 

================================================================================

----- Orbital basis set information -----
Your calculation utilizes the basis: def2-mTZVP
----- AuxJ basis set information -----
Your calculation utilizes the basis: def2-mTZVP/J
================================================================================
                                        WARNINGS
                       Please study these warnings very carefully!
================================================================================


WARNING: Geometry Optimization
  ===> : Switching off AutoStart
         For restart on a previous wavefunction, please use MOREAD

================================================================================
                                       INPUT FILE
================================================================================
NAME = m1_00_Vitamin_B2-GFN2_0000-B97-3C-TZ.inp
|  1> %pal nprocs 16 end
|  2> %MaxCore 6000
|  3> # put your comments here
|  4> ! B97-3C  OPT  FREQ DEFGRID3 NOTRAH
|  5> %scf MaxIter 800 end
|  6> %output
|  7> Print [P_Hirshfeld] 1
|  8> end
|  9> %geom
| 10> MaxIter 3000
| 11>  TolE 1e-6 #TolE 5e-6 Energy change (a.u.)
| 12>  TolRMSG 3e-5 #TolRMSG 1e-4 RMS gradient (a.u.)
| 13>  TolMaxG 1e-4 #TolMaxG 3e-3 Max. element of gradient (a.u.)
| 14>  TolRMSD 2e-3 #TolRMSD 2e-3 RMS displacement (a.u.)
| 15>  TolMaxD 4e-3 #TolMaxD 4e-3 Max. displacement (a.u.)
| 16> end
| 17> * xyz 0 1
| 18>  O 4.75883046534696 -0.35799612940747 -2.92100212486423
| 19>  O 2.66464425253837 -2.42023915906049 -2.64371585770172
| 20>  O 1.00876242779325 0.65696245404091 -1.51533869215391
| 21>  O -0.02493033524899 -2.71388663368058 -2.52393749415780
| 22>  O -1.53791301846569 1.67343176467427 -7.78190650011884
| 23>  O -1.45134753861258 -1.74397137554076 -4.81221218358250
| 24>  N 2.45600131217469 0.44351841093697 -5.46783357496797
| 25>  N 1.15033248177171 2.26560684117717 -7.12553304960771
| 26>  N 0.51170496414755 -0.74013734720298 -5.23411615510021
| 27>  N -1.44930764265673 -0.07131148725376 -6.34581762557706
| 28>  C 3.39227418655463 -0.20512219755607 -3.21386043928106
| 29>  C 3.12432258049967 -0.58114168282356 -4.69648309492394
| 30>  C 2.53596430625022 -1.07450737381863 -2.26055675516837
| 31>  C 1.08272228332633 -0.56140934022659 -2.21667122000459
| 32>  C 3.12279411768451 1.55567808245858 -5.91081280588886
| 33>  C 1.14015704481452 0.27535898381915 -5.76761445607312
| 34>  C 2.43324819937827 2.46139954845146 -6.76392542553825
| 35>  C 4.44502912168684 1.83817574247810 -5.56014629370355
| 36>  C 0.52235121107312 1.23876922609468 -6.64531413525108
| 37>  C 0.11554480821686 -1.62060510812297 -1.65181650196788
| 38>  C 5.08440616392938 2.96462695067422 -6.03690791634233
| 39>  C 3.10602322227442 3.59528596446528 -7.24771515521481
| 40>  C 4.40911292071771 3.85671876093858 -6.90411479116067
| 41>  C -0.90098814346466 1.00471905898134 -7.00599792598090
| 42>  C 6.49378513010322 3.24084535103883 -5.62840171821592
| 43>  C 5.10503631359022 5.07174009723642 -7.42864456729238
| 44>  C -0.81381715656853 -0.90959952689305 -5.42452291026317
| 45>  H 3.15614369098799 0.84971786015737 -3.03834695210725
| 46>  H 4.08431478712413 -0.80008406753965 -5.17033621911475
| 47>  H 2.49637726653076 -1.47324923229408 -4.73328626484673
| 48>  H 2.96771118579973 -0.95514336737773 -1.24895327636612
| 49>  H 0.75480961825233 -0.33557671455396 -3.23415918812190
| 50>  H 4.97519065719189 1.18885065127226 -4.88215759504840
| 51>  H 0.50074935994246 -2.02475528561539 -0.70807138575931
| 52>  H -0.84965029640093 -1.13678677610834 -1.45696381650201
| 53>  H 2.55091531524188 4.25484158454229 -7.89562481576829
| 54>  H 4.91946683650236 -1.30318446115717 -2.80174470925666
| 55>  H 1.77323624500255 -2.81731910062305 -2.68958777628146
| 56>  H 1.22652447617052 0.50043221438076 -0.58838894137514
| 57>  H 6.85505998638663 2.47871476182318 -4.94394782949785
| 58>  H 7.14499565414147 3.26608147294566 -6.50135180779731
| 59>  H 6.56462377600593 4.21128422311676 -5.13934138414110
| 60>  H 4.44794431725746 5.63465408044712 -8.08500277436891
| 61>  H 5.41555002191515 5.71873275585835 -6.60930802062061
| 62>  H 5.99810348818634 4.79184563014647 -7.98556104908578
| 63>  H -2.43323985611594 -0.25363841220186 -6.51288911063811
| 64>  H -0.51921420898599 -2.43825969310454 -3.32449571319450
| 65> *
| 66> 
| 67> 
| 68> 
| 69> 
| 70>                          ****END OF INPUT****
================================================================================

                       *****************************
                       * Geometry Optimization Run *
                       *****************************

Geometry optimization settings:
Update method            Update   .... BFGS
Choice of coordinates    CoordSys .... (2022) Redundant Internals
Initial Hessian          InHess   .... Almloef's Model
Max. no of cycles        MaxIter  .... 3000

Convergence Tolerances:
Energy Change            TolE     ....  1.0000e-06 Eh
Max. Gradient            TolMAXG  ....  1.0000e-04 Eh/bohr
RMS Gradient             TolRMSG  ....  3.0000e-05 Eh/bohr
Max. Displacement        TolMAXD  ....  4.0000e-03 bohr
RMS Displacement         TolRMSD  ....  2.0000e-03 bohr
Strict Convergence                .... False

------------------------------------------------------------------------------
                        ORCA OPTIMIZATION COORDINATE SETUP
------------------------------------------------------------------------------

The optimization will be done in redundant internal coordinates (2022)
Making redundant internal coordinates   ...  (2022 redundants) done
Evaluating the initial hessian          ...  (Almloef) done
Evaluating the coordinates              ...  done
Calculating the B-matrix                .... done
Calculating the G-matrix                .... done
Diagonalizing the G-matrix              .... done
Small eigenvalue found = 4.717e-03
Small eigenvalue found = 5.767e-03
Small eigenvalue found = 9.317e-03
Small eigenvalue found = 1.597e-02
The first mode is                       ....  107
The number of degrees of freedom        ....  135

    -----------------------------------------------------------------
                    Redundant Internal Coordinates


    -----------------------------------------------------------------
         Definition                    Initial Value    Approx d2E/dq
    -----------------------------------------------------------------
      1. B(C  10,O   0)                  1.4059         0.527807   
      2. B(C  11,C  10)                  1.5529         0.343490   
      3. B(C  11,N   6)                  1.4462         0.455170   
      4. B(C  12,C  10)                  1.5485         0.349016   
      5. B(C  12,O   1)                  1.4051         0.529361   
      6. B(C  13,C  12)                  1.5418         0.357743   
      7. B(C  13,O   2)                  1.4078         0.524267   
      8. B(C  14,N   6)                  1.3703         0.601580   
      9. B(C  15,N   6)                  1.3600         0.624803   
     10. B(C  15,N   8)                  1.3080         0.756375   
     11. B(C  16,C  14)                  1.4225         0.554410   
     12. B(C  16,N   7)                  1.3472         0.654860   
     13. B(C  17,C  14)                  1.3968         0.609360   
     14. B(C  18,C  15)                  1.4423         0.515601   
     15. B(C  18,N   7)                  1.2959         0.790679   
     16. B(C  19,C  13)                  1.5416         0.358050   
     17. B(C  19,O   3)                  1.4056         0.528511   
     18. B(C  20,C  17)                  1.3802         0.647661   
     19. B(C  21,C  16)                  1.4044         0.592574   
     20. B(C  22,C  21)                  1.3728         0.665664   
     21. B(C  22,C  20)                  1.4156         0.568736   
     22. B(C  23,C  18)                  1.4869         0.437720   
     23. B(C  23,N   9)                  1.3763         0.588378   
     24. B(C  23,O   4)                  1.2062         1.099359   
     25. B(C  24,C  20)                  1.4932         0.427716   
     26. B(C  25,C  22)                  1.4952         0.424471   
     27. B(C  26,N   9)                  1.3983         0.542709   
     28. B(C  26,N   8)                  1.3498         0.648634   
     29. B(C  26,O   5)                  1.2155         1.062209   
     30. B(H  27,C  10)                  1.0951         0.353413   
     31. B(H  28,C  11)                  1.0927         0.356507   
     32. B(H  29,C  11)                  1.0916         0.358029   
     33. B(H  30,C  12)                  1.1063         0.339117   
     34. B(H  31,C  13)                  1.0926         0.356656   
     35. B(H  32,C  17)                  1.0781         0.376151   
     36. B(H  33,C  19)                  1.0965         0.351566   
     37. B(H  34,C  19)                  1.0971         0.350817   
     38. B(H  35,C  21)                  1.0784         0.375778   
     39. B(H  36,O   0)                  0.9661         0.508378   
     40. B(H  37,O   3)                  1.8087         0.023007   
     41. B(H  37,O   1)                  0.9769         0.488610   
     42. B(H  38,O   2)                  0.9650         0.510558   
     43. B(H  39,C  24)                  1.0862         0.365156   
     44. B(H  40,C  24)                  1.0894         0.360918   
     45. B(H  41,C  24)                  1.0890         0.361408   
     46. B(H  42,C  25)                  1.0860         0.365398   
     47. B(H  43,C  25)                  1.0892         0.361176   
     48. B(H  44,C  25)                  1.0891         0.361337   
     49. B(H  45,N   9)                  1.0145         0.425561   
     50. B(H  46,O   5)                  1.8879         0.017201   
     51. B(H  46,O   3)                  0.9804         0.482417   
     52. A(C  10,O   0,H  36)          107.0798         0.358679   
     53. A(C  12,O   1,H  37)          108.5735         0.356447   
     54. A(C  13,O   2,H  38)          109.0455         0.358530   
     55. A(C  19,O   3,H  46)          109.7778         0.355579   
     56. A(C  14,N   6,C  15)          119.9933         0.426691   
     57. A(C  11,N   6,C  14)          121.5059         0.403328   
     58. A(C  11,N   6,C  15)          118.4944         0.406034   
     59. A(C  16,N   7,C  18)          118.4998         0.452083   
     60. A(C  15,N   8,C  26)          120.7816         0.447680   
     61. A(C  23,N   9,H  45)          116.6079         0.354490   
     62. A(C  23,N   9,C  26)          127.1319         0.414456   
     63. A(C  26,N   9,H  45)          116.2005         0.349679   
     64. A(C  11,C  10,H  27)          110.4298         0.318912   
     65. A(O   0,C  10,H  27)          106.3163         0.340303   
     66. A(O   0,C  10,C  11)          109.8936         0.377695   
     67. A(C  12,C  10,H  27)          108.8376         0.319744   
     68. A(C  11,C  10,C  12)          110.8800         0.354076   
     69. A(O   0,C  10,C  12)          110.3786         0.378739   
     70. A(C  10,C  11,H  28)          108.1167         0.319366   
     71. A(N   6,C  11,H  29)          107.1707         0.332736   
     72. A(C  10,C  11,H  29)          109.2297         0.319588   
     73. A(N   6,C  11,H  28)          108.4607         0.332501   
     74. A(H  28,C  11,H  29)          109.0878         0.290119   
     75. A(N   6,C  11,C  10)          114.6711         0.368180   
     76. A(C  13,C  12,H  30)          107.8125         0.318879   
     77. A(O   1,C  12,C  13)          114.3815         0.380557   
     78. A(C  10,C  12,H  30)          106.6505         0.317597   
     79. A(O   1,C  12,H  30)          108.4773         0.338131   
     80. A(O   1,C  12,C  10)          108.6138         0.378932   
     81. A(C  10,C  12,C  13)          110.6043         0.356526   
     82. A(O   2,C  13,H  31)          105.6218         0.340440   
     83. A(C  12,C  13,H  31)          108.9752         0.321518   
     84. A(C  12,C  13,C  19)          111.9094         0.358078   
     85. A(O   2,C  13,C  19)          112.2813         0.379976   
     86. A(C  19,C  13,H  31)          107.1543         0.321563   
     87. A(O   2,C  13,C  12)          110.5929         0.379920   
     88. A(N   6,C  14,C  17)          122.9297         0.427569   
     89. A(N   6,C  14,C  16)          118.3430         0.420404   
     90. A(C  16,C  14,C  17)          118.7272         0.424127   
     91. A(N   6,C  15,N   8)          118.0971         0.444654   
     92. A(N   8,C  15,C  18)          124.1254         0.432346   
     93. A(N   6,C  15,C  18)          117.7744         0.417812   
     94. A(C  14,C  16,C  21)          119.2376         0.422015   
     95. A(N   7,C  16,C  21)          118.7545         0.431960   
     96. A(N   7,C  16,C  14)          122.0079         0.426831   
     97. A(C  20,C  17,H  32)          118.7484         0.358173   
     98. A(C  14,C  17,H  32)          120.1030         0.354484   
     99. A(C  14,C  17,C  20)          121.1214         0.436129   
    100. A(N   7,C  18,C  23)          119.9155         0.423192   
    101. A(N   7,C  18,C  15)          123.1762         0.435811   
    102. A(C  15,C  18,C  23)          116.9057         0.394884   
    103. A(O   3,C  19,H  34)          111.4256         0.339960   
    104. A(C  13,C  19,H  33)          110.3776         0.320807   
    105. A(O   3,C  19,H  33)          106.4065         0.340081   
    106. A(O   3,C  19,C  13)          111.7027         0.380508   
    107. A(C  13,C  19,H  34)          108.3028         0.320695   
    108. A(H  33,C  19,H  34)          108.5864         0.288564   
    109. A(C  17,C  20,C  22)          120.3280         0.430751   
    110. A(C  22,C  20,C  24)          120.0858         0.400118   
    111. A(C  17,C  20,C  24)          119.5858         0.409405   
    112. A(C  16,C  21,C  22)          121.4846         0.436089   
    113. A(C  22,C  21,H  35)          121.5024         0.359788   
    114. A(C  16,C  21,H  35)          117.0116         0.352752   
    115. A(C  20,C  22,C  21)          119.0880         0.432878   
    116. A(C  21,C  22,C  25)          120.5811         0.410844   
    117. A(C  20,C  22,C  25)          120.3293         0.399582   
    118. A(O   4,C  23,N   9)          122.1149         0.470839   
    119. A(N   9,C  23,C  18)          112.8348         0.401570   
    120. A(O   4,C  23,C  18)          125.0481         0.449076   
    121. A(H  40,C  24,H  41)          107.4778         0.291109   
    122. A(H  39,C  24,H  41)          108.7010         0.291644   
    123. A(C  20,C  24,H  41)          110.4328         0.331838   
    124. A(H  39,C  24,H  40)          108.8065         0.291581   
    125. A(C  20,C  24,H  40)          110.4441         0.331763   
    126. A(C  20,C  24,H  39)          110.8878         0.332406   
    127. A(H  43,C  25,H  44)          107.6715         0.291133   
    128. A(H  42,C  25,H  44)          108.6817         0.291665   
    129. A(C  22,C  25,H  44)          110.6228         0.331409   
    130. A(H  42,C  25,H  43)          108.6164         0.291645   
    131. A(C  22,C  25,H  43)          110.5787         0.331385   
    132. A(C  22,C  25,H  42)          110.5851         0.332023   
    133. A(N   8,C  26,N   9)          117.6429         0.421717   
    134. A(O   5,C  26,N   9)          120.3332         0.461014   
    135. A(O   5,C  26,N   8)          122.0166         0.476334   
    136. D(C  11,C  10,O   0,H  36)    -77.7776         0.022115   
    137. D(H  27,C  10,O   0,H  36)    162.7029         0.022115   
    138. D(C  12,C  10,O   0,H  36)     44.8217         0.022115   
    139. D(N   6,C  11,C  10,H  27)     -8.4481         0.009536   
    140. D(N   6,C  11,C  10,C  12)    112.2736         0.009536   
    141. D(H  28,C  11,N   6,C  15)    133.9507         0.017679   
    142. D(H  29,C  11,N   6,C  14)   -162.7761         0.017679   
    143. D(H  28,C  11,C  10,O   0)     -4.2980         0.009536   
    144. D(H  28,C  11,C  10,H  27)    112.6778         0.009536   
    145. D(C  10,C  11,N   6,C  14)     75.8059         0.017679   
    146. D(H  28,C  11,N   6,C  14)    -45.1311         0.017679   
    147. D(H  28,C  11,C  10,C  12)   -126.6005         0.009536   
    148. D(C  10,C  11,N   6,C  15)   -105.1124         0.017679   
    149. D(N   6,C  11,C  10,O   0)   -125.4239         0.009536   
    150. D(C  10,C  12,O   1,H  37)   -132.0949         0.022251   
    151. D(C  13,C  12,C  10,H  27)     43.5580         0.009819   
    152. D(C  13,C  12,C  10,C  11)    -78.1020         0.009819   
    153. D(C  13,C  12,C  10,O   0)    159.8783         0.009819   
    154. D(O   1,C  12,C  10,H  27)    169.8563         0.009819   
    155. D(O   1,C  12,C  10,C  11)     48.1963         0.009819   
    156. D(H  30,C  12,O   1,H  37)    112.3534         0.022251   
    157. D(O   1,C  12,C  10,O   0)    -73.8234         0.009819   
    158. D(C  13,C  12,O   1,H  37)     -8.0151         0.022251   
    159. D(C  19,C  13,C  12,O   1)     39.2148         0.010277   
    160. D(O   2,C  13,C  12,C  10)    -71.7826         0.010277   
    161. D(O   2,C  13,C  12,O   1)    165.2073         0.010277   
    162. D(O   2,C  13,C  12,H  30)     44.4698         0.010277   
    163. D(H  31,C  13,O   2,H  38)    175.8328         0.021806   
    164. D(C  12,C  13,O   2,H  38)    -66.4091         0.021806   
    165. D(C  19,C  13,C  12,C  10)    162.2249         0.010277   
    166. D(C  19,C  13,O   2,H  38)     59.3748         0.021806   
    167. D(C  19,C  13,C  12,H  30)    -81.5228         0.010277   
    168. D(C  17,C  14,N   6,C  15)    175.2816         0.029172   
    169. D(C  17,C  14,N   6,C  11)     -5.6502         0.029172   
    170. D(C  16,C  14,N   6,C  15)     -4.6142         0.029172   
    171. D(C  16,C  14,N   6,C  11)    174.4539         0.029172   
    172. D(C  18,C  15,N   8,C  26)     -3.6751         0.043531   
    173. D(C  18,C  15,N   6,C  14)      5.0106         0.031649   
    174. D(C  18,C  15,N   6,C  11)   -174.0855         0.031649   
    175. D(N   8,C  15,N   6,C  14)   -174.3810         0.031649   
    176. D(N   6,C  15,N   8,C  26)    175.6746         0.043531   
    177. D(N   8,C  15,N   6,C  11)      6.5229         0.031649   
    178. D(C  21,C  16,C  14,C  17)      1.1959         0.021039   
    179. D(C  21,C  16,C  14,N   6)   -178.9038         0.021039   
    180. D(N   7,C  16,C  14,C  17)   -178.8589         0.021039   
    181. D(C  21,C  16,N   7,C  18)   -178.0236         0.031733   
    182. D(C  14,C  16,N   7,C  18)      2.0310         0.031733   
    183. D(N   7,C  16,C  14,N   6)      1.0414         0.021039   
    184. D(H  32,C  17,C  14,C  16)    177.4461         0.025642   
    185. D(H  32,C  17,C  14,N   6)     -2.4494         0.025642   
    186. D(C  20,C  17,C  14,C  16)     -0.6321         0.025642   
    187. D(C  20,C  17,C  14,N   6)    179.4724         0.025642   
    188. D(C  23,C  18,C  15,N   8)     -3.1519         0.018124   
    189. D(C  23,C  18,C  15,N   6)    177.4965         0.018124   
    190. D(N   7,C  18,C  15,N   8)    177.4333         0.018124   
    191. D(N   7,C  18,C  15,N   6)     -1.9184         0.018124   
    192. D(C  23,C  18,N   7,C  16)    179.0092         0.048050   
    193. D(C  15,C  18,N   7,C  16)     -1.5928         0.048050   
    194. D(O   3,C  19,C  13,C  12)    -68.1874         0.010293   
    195. D(O   3,C  19,C  13,O   2)    166.7485         0.010293   
    196. D(H  34,C  19,O   3,H  46)     51.4336         0.024075   
    197. D(H  33,C  19,O   3,H  46)    169.6284         0.024075   
    198. D(C  13,C  19,O   3,H  46)    -69.8497         0.024075   
    199. D(H  33,C  19,C  13,H  31)    169.3876         0.010293   
    200. D(H  33,C  19,C  13,C  12)     49.9855         0.010293   
    201. D(H  33,C  19,C  13,O   2)    -75.0787         0.010293   
    202. D(O   3,C  19,C  13,H  31)     51.2147         0.010293   
    203. D(C  24,C  20,C  17,H  32)      1.2500         0.029191   
    204. D(C  24,C  20,C  17,C  14)    179.3536         0.029191   
    205. D(C  22,C  20,C  17,H  32)   -178.5279         0.029191   
    206. D(C  22,C  20,C  17,C  14)     -0.4242         0.029191   
    207. D(H  35,C  21,C  16,C  14)    179.6899         0.024175   
    208. D(H  35,C  21,C  16,N   7)     -0.2571         0.024175   
    209. D(C  22,C  21,C  16,C  14)     -0.7229         0.024175   
    210. D(C  22,C  21,C  16,N   7)    179.3301         0.024175   
    211. D(C  25,C  22,C  21,H  35)     -0.2980         0.030959   
    212. D(C  25,C  22,C  21,C  16)   -179.8666         0.030959   
    213. D(C  20,C  22,C  21,H  35)    179.2391         0.030959   
    214. D(C  20,C  22,C  21,C  16)     -0.3295         0.030959   
    215. D(C  25,C  22,C  20,C  24)      0.6746         0.022184   
    216. D(C  25,C  22,C  20,C  17)   -179.5486         0.022184   
    217. D(C  21,C  22,C  20,C  24)   -178.8637         0.022184   
    218. D(C  21,C  22,C  20,C  17)      0.9131         0.022184   
    219. D(N   9,C  23,C  18,N   7)   -175.8491         0.013077   
    220. D(O   4,C  23,C  18,C  15)   -175.8209         0.013077   
    221. D(O   4,C  23,C  18,N   7)      3.6141         0.013077   
    222. D(C  18,C  23,N   9,H  45)    176.9147         0.027819   
    223. D(C  18,C  23,N   9,C  26)     -0.1511         0.027819   
    224. D(O   4,C  23,N   9,H  45)     -2.5664         0.027819   
    225. D(N   9,C  23,C  18,C  15)      4.7160         0.013077   
    226. D(O   4,C  23,N   9,C  26)   -179.6321         0.027819   
    227. D(H  41,C  24,C  20,C  17)   -121.8416         0.013514   
    228. D(H  40,C  24,C  20,C  22)    -60.8089         0.013514   
    229. D(H  40,C  24,C  20,C  17)    119.4127         0.013514   
    230. D(H  39,C  24,C  20,C  22)    178.4939         0.013514   
    231. D(H  39,C  24,C  20,C  17)     -1.2845         0.013514   
    232. D(H  44,C  25,C  22,C  20)     58.8615         0.013315   
    233. D(H  43,C  25,C  22,C  21)    119.2005         0.013315   
    234. D(H  43,C  25,C  22,C  20)    -60.3309         0.013315   
    235. D(H  42,C  25,C  22,C  21)     -1.1480         0.013315   
    236. D(H  42,C  25,C  22,C  20)    179.3207         0.013315   
    237. D(N   8,C  26,N   9,H  45)    176.4756         0.023443   
    238. D(N   8,C  26,N   9,C  23)     -6.4482         0.023443   
    239. D(O   5,C  26,N   9,H  45)     -4.4926         0.023443   
    240. D(O   5,C  26,N   9,C  23)    172.5835         0.023443   
    241. D(N   9,C  26,N   8,C  15)      8.2176         0.031083   
    242. D(O   5,C  26,N   8,C  15)   -170.7968         0.031083   
    -----------------------------------------------------------------

Number of atoms                         .... 47
Number of degrees of freedom            .... 242


         *************************************************************
         *                GEOMETRY OPTIMIZATION CYCLE   1            *
         *************************************************************
---------------------------------
CARTESIAN COORDINATES (ANGSTROEM)
---------------------------------
  O      4.758830   -0.357996   -2.921002
  O      2.664644   -2.420239   -2.643716
  O      1.008762    0.656962   -1.515339
  O     -0.024930   -2.713887   -2.523937
  O     -1.537913    1.673432   -7.781907
  O     -1.451348   -1.743971   -4.812212
  N      2.456001    0.443518   -5.467834
  N      1.150332    2.265607   -7.125533
  N      0.511705   -0.740137   -5.234116
  N     -1.449308   -0.071311   -6.345818
  C      3.392274   -0.205122   -3.213860
  C      3.124323   -0.581142   -4.696483
  C      2.535964   -1.074507   -2.260557
  C      1.082722   -0.561409   -2.216671
  C      3.122794    1.555678   -5.910813
  C      1.140157    0.275359   -5.767614
  C      2.433248    2.461400   -6.763925
  C      4.445029    1.838176   -5.560146
  C      0.522351    1.238769   -6.645314
  C      0.115545   -1.620605   -1.651817
  C      5.084406    2.964627   -6.036908
  C      3.106023    3.595286   -7.247715
  C      4.409113    3.856719   -6.904115
  C     -0.900988    1.004719   -7.005998
  C      6.493785    3.240845   -5.628402
  C      5.105036    5.071740   -7.428645
  C     -0.813817   -0.909600   -5.424523
  H      3.156144    0.849718   -3.038347
  H      4.084315   -0.800084   -5.170336
  H      2.496377   -1.473249   -4.733286
  H      2.967711   -0.955143   -1.248953
  H      0.754810   -0.335577   -3.234159
  H      4.975191    1.188851   -4.882158
  H      0.500749   -2.024755   -0.708071
  H     -0.849650   -1.136787   -1.456964
  H      2.550915    4.254842   -7.895625
  H      4.919467   -1.303184   -2.801745
  H      1.773236   -2.817319   -2.689588
  H      1.226524    0.500432   -0.588389
  H      6.855060    2.478715   -4.943948
  H      7.144996    3.266081   -6.501352
  H      6.564624    4.211284   -5.139341
  H      4.447944    5.634654   -8.085003
  H      5.415550    5.718733   -6.609308
  H      5.998103    4.791846   -7.985561
  H     -2.433240   -0.253638   -6.512889
  H     -0.519214   -2.438260   -3.324496

----------------------------
CARTESIAN COORDINATES (A.U.)
----------------------------
  NO LB      ZA    FRAG     MASS         X           Y           Z
   0 O     8.0000    0    15.999    8.992886   -0.676515   -5.519894
   1 O     8.0000    0    15.999    5.035448   -4.573589   -4.995899
   2 O     8.0000    0    15.999    1.906285    1.241479   -2.863575
   3 O     8.0000    0    15.999   -0.047112   -5.128502   -4.769551
   4 O     8.0000    0    15.999   -2.906234    3.162328  -14.705672
   5 O     8.0000    0    15.999   -2.742649   -3.295628   -9.093763
   6 N     7.0000    0    14.007    4.641170    0.838128  -10.332708
   7 N     7.0000    0    14.007    2.173813    4.281376  -13.465306
   8 N     7.0000    0    14.007    0.966982   -1.398657   -9.891046
   9 N     7.0000    0    14.007   -2.738795   -0.134759  -11.991857
  10 C     6.0000    0    12.011    6.410469   -0.387625   -6.073316
  11 C     6.0000    0    12.011    5.904114   -1.098199   -8.875067
  12 C     6.0000    0    12.011    4.792278   -2.030525   -4.271833
  13 C     6.0000    0    12.011    2.046049   -1.060910   -4.188902
  14 C     6.0000    0    12.011    5.901226    2.939806  -11.169817
  15 C     6.0000    0    12.011    2.154585    0.520353  -10.899212
  16 C     6.0000    0    12.011    4.598173    4.651371  -12.781967
  17 C     6.0000    0    12.011    8.399888    3.473649  -10.507154
  18 C     6.0000    0    12.011    0.987101    2.340935  -12.557824
  19 C     6.0000    0    12.011    0.218348   -3.062500   -3.121481
  20 C     6.0000    0    12.011    9.608135    5.602333  -11.408103
  21 C     6.0000    0    12.011    5.869533    6.794106  -13.696197
  22 C     6.0000    0    12.011    8.332016    7.288142  -13.046886
  23 C     6.0000    0    12.011   -1.702621    1.898644  -13.239417
  24 C     6.0000    0    12.011   12.271475    6.124310  -10.636138
  25 C     6.0000    0    12.011    9.647121    9.584200  -14.038104
  26 C     6.0000    0    12.011   -1.537892   -1.718894  -10.250863
  27 H     1.0000    0     1.008    5.964247    1.605734   -5.741644
  28 H     1.0000    0     1.008    7.718236   -1.511940   -9.770519
  29 H     1.0000    0     1.008    4.717469   -2.784038   -8.944615
  30 H     1.0000    0     1.008    5.608161   -1.804959   -2.360180
  31 H     1.0000    0     1.008    1.426383   -0.634148   -6.111675
  32 H     1.0000    0     1.008    9.401748    2.246602   -9.225941
  33 H     1.0000    0     1.008    0.946279   -3.826233   -1.338061
  34 H     1.0000    0     1.008   -1.605606   -2.148216   -2.753263
  35 H     1.0000    0     1.008    4.820531    8.040485  -14.920569
  36 H     1.0000    0     1.008    9.296445   -2.462662   -5.294530
  37 H     1.0000    0     1.008    3.350931   -5.323962   -5.082584
  38 H     1.0000    0     1.008    2.317795    0.945680   -1.111894
  39 H     1.0000    0     1.008   12.954186    4.684092   -9.342707
  40 H     1.0000    0     1.008   13.502085    6.172000  -12.285774
  41 H     1.0000    0     1.008   12.405341    7.958174   -9.711948
  42 H     1.0000    0     1.008    8.405397   10.647953  -15.278441
  43 H     1.0000    0     1.008   10.233906   10.806839  -12.489782
  44 H     1.0000    0     1.008   11.334773    9.055276  -15.090523
  45 H     1.0000    0     1.008   -4.598157   -0.479307  -12.307577
  46 H     1.0000    0     1.008   -0.981173   -4.607643   -6.282386

--------------------------------
INTERNAL COORDINATES (ANGSTROEM)
--------------------------------
 O      0   0   0     0.000000000000     0.00000000     0.00000000
 O      1   0   0     2.952177142589     0.00000000     0.00000000
 O      2   1   0     3.672104221414    76.31176430     0.00000000
 O      2   1   3     2.708207370014   141.66398035    22.64952156
 O      3   2   1     6.840222056327    90.62461912    94.53571025
 O      4   2   1     2.865589415859   114.98192370    58.99624441
 N      1   2   3     3.525875508625    76.31029146   289.75417230
 N      7   1   2     2.787964291472   152.12011558   148.98204579
 N      6   4   2     2.244829803398    82.30750757   345.26160253
 N      5   3   2     2.261488709535    44.68389525    49.00107043
 C      1   2   3     1.405920514990    53.55962082   320.83067026
 C      7   1   2     1.446223768476    31.99070601   324.28679847
 C      2   1   3     1.405120444745    54.65847462   356.17073559
 C      3   2   1     1.407752536463    25.57263362   137.06632453
 C      7   1   2     1.370307403273    95.75040185   178.16832939
 C      9   6   4     1.307977543062   147.56558685   209.56632862
 C      8   7   1     1.347207332406    59.29704790    34.47044384
 C     15   7   1     1.396809699456   122.92972257    14.61747925
 C      8   7   1     1.295903611308    59.25287217   217.08300345
 C      4   2   1     1.405557819898    81.01642571   315.03530853
 C     18  15   7     1.380216277043   121.12144719   179.47240317
 C     17   8   7     1.404413449948   118.75449639   179.42153396
 C     22  17   8     1.372753102141   121.48463833   179.33007713
 C      5   3   2     1.206185762879    29.73728830     2.37424698
 C     21  18  15     1.493158728636   119.58577671   179.35363747
 C     23  22  17     1.495231655114   120.58113389   180.13342090
 C      6   4   2     1.215543415865   111.93212273   337.23267471
 H     11   1   2     1.095102799957   106.31630037   150.46234493
 H     12   7   1     1.092729421179   108.46068108   274.28389520
 H     12   7   1     1.091570277387   107.17069809   156.63887343
 H     13   2   1     1.106342954223   108.47728288   276.15760871
 H     14   3   2     1.092615603036   105.62176154   230.34521131
 H     18  15   7     1.078129400073   120.10296275   357.55061113
 H     20   4   2     1.096528502596   106.40648550   283.84542576
 H     20   4   2     1.097109537560   111.42555347   165.65061081
 H     22  17   8     1.078399430946   117.01160785   359.74291277
 H      1   2   3     0.966130093409    54.75620092   155.19877443
 H      2   1   3     0.976926276033   157.94050577    40.91778407
 H      3   2   1     0.964965214974    93.29530621   266.62761038
 H     25  21  18     1.086204254541   110.88781557   358.71549628
 H     25  21  18     1.089382332961   110.44409058   119.41272034
 H     25  21  18     1.089013190259   110.43283604   238.15835025
 H     26  23  22     1.086024005322   110.58513208   358.85204716
 H     26  23  22     1.089188064606   110.57865242   119.20047273
 H     26  23  22     1.089066507952   110.62280155   238.39286411
 H     10   5   3     1.014533680744    89.77530919   133.32148216
 H      4   2   1     0.980397990754   115.72800537    62.73903428

---------------------------
INTERNAL COORDINATES (A.U.)
---------------------------
 O      0   0   0     0.000000000000     0.00000000     0.00000000
 O      1   0   0     5.578806298316     0.00000000     0.00000000
 O      2   1   0     6.939271313688    76.31176430     0.00000000
 O      2   1   3     5.117770243193   141.66398035    22.64952156
 O      3   2   1    12.926146381665    90.62461912    94.53571025
 O      4   2   1     5.415179208238   114.98192370    58.99624441
 N      1   2   3     6.662939093601    76.31029146   289.75417230
 N      7   1   2     5.268488982034   152.12011558   148.98204579
 N      6   4   2     4.242113545687    82.30750757   345.26160253
 N      5   3   2     4.273594315976    44.68389525    49.00107043
 C      1   2   3     2.656804739392    53.55962082   320.83067026
 C      7   1   2     2.732966850787    31.99070601   324.28679847
 C      2   1   3     2.655292825742    54.65847462   356.17073559
 C      3   2   1     2.660266758248    25.57263362   137.06632453
 C      7   1   2     2.589505711472    95.75040185   178.16832939
 C      9   6   4     2.471719345707   147.56558685   209.56632862
 C      8   7   1     2.545852903858    59.29704790    34.47044384
 C     15   7   1     2.639587793176   122.92972257    14.61747925
 C      8   7   1     2.448902921333    59.25287217   217.08300345
 C      4   2   1     2.656119344998    81.01642571   315.03530853
 C     18  15   7     2.608230769192   121.12144719   179.47240317
 C     17   8   7     2.653956799197   118.75449639   179.42153396
 C     22  17   8     2.594127412538   121.48463833   179.33007713
 C      5   3   2     2.279360758475    29.73728830     2.37424698
 C     21  18  15     2.821661071595   119.58577671   179.35363747
 C     23  22  17     2.825578334935   120.58113389   180.13342090
 C      6   4   2     2.297044159876   111.93212273   337.23267471
 H     11   1   2     2.069444380409   106.31630037   150.46234493
 H     12   7   1     2.064959344507   108.46068108   274.28389520
 H     12   7   1     2.062768880189   107.17069809   156.63887343
 H     13   2   1     2.090685193675   108.47728288   276.15760871
 H     14   3   2     2.064744259387   105.62176154   230.34521131
 H     18  15   7     2.037369303068   120.10296275   357.55061113
 H     20   4   2     2.072138567945   106.40648550   283.84542576
 H     20   4   2     2.073236564901   111.42555347   165.65061081
 H     22  17   8     2.037879587464   117.01160785   359.74291277
 H      1   2   3     1.825721286283    54.75620092   155.19877443
 H      2   1   3     1.846123114735   157.94050577    40.91778407
 H      3   2   1     1.823519985062    93.29530621   266.62761038
 H     25  21  18     2.052628566582   110.88781557   358.71549628
 H     25  21  18     2.058634264428   110.44409058   119.41272034
 H     25  21  18     2.057936685818   110.43283604   238.15835025
 H     26  23  22     2.052287944923   110.58513208   358.85204716
 H     26  23  22     2.058267150441   110.57865242   119.20047273
 H     26  23  22     2.058037441654   110.62280155   238.39286411
 H     10   5   3     1.917190810246    89.77530919   133.32148216
 H      4   2   1     1.852683704772   115.72800537    62.73903428

---------------------
BASIS SET INFORMATION
---------------------
There are 4 groups of distinct atoms

 Group   1 Type O   : 11s6p2d contracted to 5s3p2d pattern {62111/411/11}
 Group   2 Type N   : 11s6p1d contracted to 5s3p1d pattern {62111/411/1}
 Group   3 Type C   : 11s6p1d contracted to 5s3p1d pattern {62111/411/1}
 Group   4 Type H   : 5s contracted to 3s pattern {311}

Atom   0O    basis set group =>   1
Atom   1O    basis set group =>   1
Atom   2O    basis set group =>   1
Atom   3O    basis set group =>   1
Atom   4O    basis set group =>   1
Atom   5O    basis set group =>   1
Atom   6N    basis set group =>   2
Atom   7N    basis set group =>   2
Atom   8N    basis set group =>   2
Atom   9N    basis set group =>   2
Atom  10C    basis set group =>   3
Atom  11C    basis set group =>   3
Atom  12C    basis set group =>   3
Atom  13C    basis set group =>   3
Atom  14C    basis set group =>   3
Atom  15C    basis set group =>   3
Atom  16C    basis set group =>   3
Atom  17C    basis set group =>   3
Atom  18C    basis set group =>   3
Atom  19C    basis set group =>   3
Atom  20C    basis set group =>   3
Atom  21C    basis set group =>   3
Atom  22C    basis set group =>   3
Atom  23C    basis set group =>   3
Atom  24C    basis set group =>   3
Atom  25C    basis set group =>   3
Atom  26C    basis set group =>   3
Atom  27H    basis set group =>   4
Atom  28H    basis set group =>   4
Atom  29H    basis set group =>   4
Atom  30H    basis set group =>   4
Atom  31H    basis set group =>   4
Atom  32H    basis set group =>   4
Atom  33H    basis set group =>   4
Atom  34H    basis set group =>   4
Atom  35H    basis set group =>   4
Atom  36H    basis set group =>   4
Atom  37H    basis set group =>   4
Atom  38H    basis set group =>   4
Atom  39H    basis set group =>   4
Atom  40H    basis set group =>   4
Atom  41H    basis set group =>   4
Atom  42H    basis set group =>   4
Atom  43H    basis set group =>   4
Atom  44H    basis set group =>   4
Atom  45H    basis set group =>   4
Atom  46H    basis set group =>   4
---------------------------------
AUXILIARY/J BASIS SET INFORMATION
---------------------------------
There are 4 groups of distinct atoms

 Group   1 Type O   : 8s3p3d contracted to 6s3p3d pattern {311111/111/111}
 Group   2 Type N   : 8s3p3d contracted to 6s3p3d pattern {311111/111/111}
 Group   3 Type C   : 8s3p3d contracted to 6s3p3d pattern {311111/111/111}
 Group   4 Type H   : 5s2p contracted to 3s1p pattern {311/2}

Atom   0O    basis set group =>   1
Atom   1O    basis set group =>   1
Atom   2O    basis set group =>   1
Atom   3O    basis set group =>   1
Atom   4O    basis set group =>   1
Atom   5O    basis set group =>   1
Atom   6N    basis set group =>   2
Atom   7N    basis set group =>   2
Atom   8N    basis set group =>   2
Atom   9N    basis set group =>   2
Atom  10C    basis set group =>   3
Atom  11C    basis set group =>   3
Atom  12C    basis set group =>   3
Atom  13C    basis set group =>   3
Atom  14C    basis set group =>   3
Atom  15C    basis set group =>   3
Atom  16C    basis set group =>   3
Atom  17C    basis set group =>   3
Atom  18C    basis set group =>   3
Atom  19C    basis set group =>   3
Atom  20C    basis set group =>   3
Atom  21C    basis set group =>   3
Atom  22C    basis set group =>   3
Atom  23C    basis set group =>   3
Atom  24C    basis set group =>   3
Atom  25C    basis set group =>   3
Atom  26C    basis set group =>   3
Atom  27H    basis set group =>   4
Atom  28H    basis set group =>   4
Atom  29H    basis set group =>   4
Atom  30H    basis set group =>   4
Atom  31H    basis set group =>   4
Atom  32H    basis set group =>   4
Atom  33H    basis set group =>   4
Atom  34H    basis set group =>   4
Atom  35H    basis set group =>   4
Atom  36H    basis set group =>   4
Atom  37H    basis set group =>   4
Atom  38H    basis set group =>   4
Atom  39H    basis set group =>   4
Atom  40H    basis set group =>   4
Atom  41H    basis set group =>   4
Atom  42H    basis set group =>   4
Atom  43H    basis set group =>   4
Atom  44H    basis set group =>   4
Atom  45H    basis set group =>   4
Atom  46H    basis set group =>   4


           ************************************************************
           *        Program running with 16 parallel MPI-processes    *
           *              working on a common directory               *
           ************************************************************
------------------------------------------------------------------------------
                             ORCA STARTUP CALCULATIONS
                           -- RI-GTO INTEGRALS CHOSEN --
------------------------------------------------------------------------------
------------------------------------------------------------------------------
                   ___                                                        
                  /   \      - P O W E R E D   B Y -                         
                 /     \                                                     
                 |  |  |   _    _      __       _____    __    __             
                 |  |  |  | |  | |    /  \     |  _  \  |  |  /  |          
                  \  \/   | |  | |   /    \    | | | |  |  | /  /          
                 / \  \   | |__| |  /  /\  \   | |_| |  |  |/  /          
                |  |  |   |  __  | /  /__\  \  |    /   |      \           
                |  |  |   | |  | | |   __   |  |    \   |  |\   \          
                \     /   | |  | | |  |  |  |  | |\  \  |  | \   \       
                 \___/    |_|  |_| |__|  |__|  |_| \__\ |__|  \__/        
                                                                              
                      - O R C A' S   B I G   F R I E N D -                    
                                      &                                       
                       - I N T E G R A L  F E E D E R -                       
                                                                              
 v1 FN, 2020, v2 2021, v3 2022-2024                                           
------------------------------------------------------------------------------


----------------------
SHARK INTEGRAL PACKAGE
----------------------

Number of atoms                             ...     47
Number of basis functions                   ...    603
Number of shells                            ...    309
Maximum angular momentum                    ...      2
Integral batch strategy                     ... SHARK/LIBINT Hybrid
RI-J (if used) integral strategy            ... SPLIT-RIJ (Revised 2003 algorithm where possible)
Printlevel                                  ...      1
Contraction scheme used                     ... SEGMENTED contraction
Prescreening option                         ... SCHWARTZ
   Thresh                                   ... 2.500e-11
   Tcut                                     ... 2.500e-12
   Tpresel                                  ... 2.500e-12 
Coulomb Range Separation                    ... NOT USED
Exchange Range Separation                   ... NOT USED
Multipole approximations                    ... NOT USED
Finite Nucleus Model                        ... NOT USED
CABS basis                                  ... NOT available
Auxiliary Coulomb fitting basis             ... AVAILABLE
   # of basis functions in Aux-J            ...    930
   # of shells in Aux-J                     ...    404
   Maximum angular momentum in Aux-J        ...      2
Auxiliary J/K fitting basis                 ... NOT available
Auxiliary Correlation fitting basis         ... NOT available
Auxiliary 'external' fitting basis          ... NOT available

Checking pre-screening integrals            ... done (  0.0 sec) Dimension = 309
Check shell pair data                       ... done (  0.0 sec)
Shell pair information
Shell pair cut-off parameter TPreSel        ...   2.5e-12
Total number of shell pairs                 ...     47895
Shell pairs after pre-screening             ...     33579
Total number of primitive shell pairs       ...    176182
Primitive shell pairs kept                  ...     76145
          la=0 lb=0:  12260 shell pairs
          la=1 lb=0:  11838 shell pairs
          la=1 lb=1:   2807 shell pairs
          la=2 lb=0:   4204 shell pairs
          la=2 lb=1:   2081 shell pairs
          la=2 lb=2:    389 shell pairs

Calculating one electron integrals          ... done (  0.0 sec)
Calculating RI/J V-Matrix + Cholesky decomp.... done (  0.0 sec)
Calculating Nuclear repulsion               ... done (  0.0 sec) ENN=   2661.295705527790 Eh

Diagonalization of the overlap matrix:
Smallest eigenvalue                        ... 4.509e-06
Time for diagonalization                   ...    0.044 sec
Threshold for overlap eigenvalues          ... 1.000e-07
Number of eigenvalues below threshold      ... 0
Time for construction of square roots      ...    0.023 sec
Total time needed                          ...    0.071 sec

-------------------
DFT GRID GENERATION
-------------------

General Integration Accuracy     IntAcc      ... 4.959
Radial Grid Type                 RadialGrid  ... OptM3 with GC (2021)
Angular Grid (max. ang.)         AngularGrid ... 6 (Lebedev-590)
Angular grid pruning method      GridPruning ... 4 (adaptive)
Weight generation scheme         WeightScheme... mBecke (2022)
Basis function cutoff            BFCut       ... 1.0000e-11
Integration weight cutoff        WCut        ... 1.0000e-14
Partially contracted basis set               ... off
Rotationally invariant grid construction     ... off
Angular grids for H and He will be reduced by one unit
Diffuse basis detected: some atoms will have their outermost
                        angular grid increased by 1.

Total number of grid points                  ...   553748
Total number of batches                      ...     8676
Average number of points per batch           ...       63
Average number of grid points per atom       ...    11782
Initializing property integral containers    ... done (  0.0 sec)

SHARK setup successfully completed in   4.8 seconds

Maximum memory used throughout the entire STARTUP-calculation: 137.6 MB


           ************************************************************
           *        Program running with 16 parallel MPI-processes    *
           *              working on a common directory               *
           ************************************************************
-------------------------------------------------------------------------------
                                 ORCA GUESS
                   Start orbitals & Density for SCF / CASSCF
-------------------------------------------------------------------------------

------------
SCF SETTINGS
------------
Hamiltonian:
 Density Functional     Method          .... DFT(GTOs)
 Exchange Functional    Exchange        .... B973C
 Correlation Functional Correlation     .... B973C
 Gradients option       PostSCFGGA      .... off
 RI-approximation to the Coulomb term is turned on
   Number of AuxJ basis functions       .... 930


General Settings:
 Integral files         IntName         .... m1_00_Vitamin_B2-GFN2_0000-B97-3C-TZ
 Hartree-Fock type      HFTyp           .... RHF
 Total Charge           Charge          ....    0
 Multiplicity           Mult            ....    1
 Number of Electrons    NEL             ....  198
 Basis Dimension        Dim             ....  603
 Nuclear Repulsion      ENuc            ....   2661.2957055278 Eh

Convergence Acceleration:
 AO-DIIS                CNVDIIS         .... on
   Start iteration      DIISMaxIt       ....    12
   Startup error        DIISStart       ....  0.200000
   # of expansion vecs  DIISMaxEq       ....     5
   Bias factor          DIISBfac        ....   1.050
   Max. coefficient     DIISMaxC        ....  10.000
 MO-DIIS                CNVKDIIS        .... off
 Trust-Rad. Augm. Hess. CNVTRAH         .... off
 SOSCF                  CNVSOSCF        .... on
   Start iteration      SOSCFMaxIt      ....   150
   Startup grad/error   SOSCFStart      ....  0.003300
   Hessian update       SOSCFHessUp     .... L-BFGS
 Level Shifting         CNVShift        .... on
   Level shift para.    LevelShift      ....    0.2500
   Turn off err/grad.   ShiftErr        ....    0.0010
 Zerner damping         CNVZerner       .... off
 Static damping         CNVDamp         .... on
   Fraction old density DampFac         ....    0.7000
   Max. Damping (<1)    DampMax         ....    0.9800
   Min. Damping (>=0)   DampMin         ....    0.0000
   Turn off err/grad.   DampErr         ....    0.1000

SCF Procedure:
 Maximum # iterations   MaxIter         ....   800
 SCF integral mode      SCFMode         .... Direct
   Integral package                     .... SHARK and LIBINT hybrid scheme
 Reset frequency        DirectResetFreq ....    20
 Integral Threshold     Thresh          ....  2.500e-11 Eh
 Primitive CutOff       TCut            ....  2.500e-12 Eh

Convergence Tolerance:
 Convergence Check Mode ConvCheckMode   .... Total+1el-Energy
 Convergence forced     ConvForced      .... 0
 Energy Change          TolE            ....  1.000e-08 Eh
 1-El. energy change                    ....  1.000e-05 Eh
 Orbital Gradient       TolG            ....  1.000e-05
 Orbital Rotation angle TolX            ....  1.000e-05
 DIIS Error             TolErr          ....  5.000e-07

--------------------------------
INITIAL GUESS: MINIMAL BASIS EHT
--------------------------------
The minimal basis has 155 functions
EHT matrix was diagonalized
Basis set overlap was calculated now projecting the orbitals
Using GuessMode=FMatrix for the initial guess
C*T matrix was formed
Effective Fockian was calculated
Effective Fockian was diagonalized
Initial density was built
                      ------------------
                      INITIAL GUESS DONE
                      ------------------
             **** ENERGY FILE WAS UPDATED (m1_00_Vitamin_B2-GFN2_0000-B97-3C-TZ.en.tmp) ****
Finished Guess after   0.5 sec
Maximum memory used throughout the entire GUESS-calculation: 58.5 MB


           ************************************************************
           *        Program running with 16 parallel MPI-processes    *
           *              working on a common directory               *
           ************************************************************

-------------------------------------------------------------------------------------------
                                      ORCA LEAN-SCF
                              memory conserving SCF solver
-------------------------------------------------------------------------------------------

----------------------------------------D-I-I-S--------------------------------------------
Iteration    Energy (Eh)           Delta-E    RMSDP     MaxDP     DIISErr   Damp  Time(sec)
-------------------------------------------------------------------------------------------
               ***  Starting incremental Fock matrix formation  ***
    1    -1324.7177914823746505     0.00e+00  7.37e-03  3.60e-01  4.72e-01  0.700   1.5
Warning: op=0 Small HOMO/LUMO gap (   0.026) - skipping pre-diagonalization
         Will do a full diagonalization
    2    -1326.4333833760088055    -1.72e+00  7.12e-03  8.27e-01  3.33e-01  0.700   1.6
    3    -1327.3092483390782945    -8.76e-01  3.91e-03  3.52e-01  2.38e-01  0.700   1.5
                               ***Turning on AO-DIIS***
    4    -1327.9215653858545920    -6.12e-01  3.04e-03  2.52e-01  1.66e-01  0.700   1.5
    5    -1328.3494165615979909    -4.28e-01  2.24e-03  1.78e-01  1.14e-01  0.700   1.5
    6    -1328.6525081886129556    -3.03e-01  1.50e-03  1.22e-01  7.93e-02  0.700   1.5
    7    -1328.8672373187687299    -2.15e-01  3.24e-03  2.62e-01  5.56e-02  0.000   1.5
    8    -1329.3635656597803063    -4.96e-01  4.78e-04  4.85e-02  2.15e-02  0.000   1.5
    9    -1329.3671302594766530    -3.56e-03  1.91e-04  2.04e-02  1.02e-02  0.000   1.5
   10    -1329.3673453572982908    -2.15e-04  7.62e-05  5.21e-03  5.46e-03  0.000   1.4
                              *** Initializing SOSCF ***
---------------------------------------S-O-S-C-F--------------------------------------
Iteration    Energy (Eh)           Delta-E    RMSDP     MaxDP     MaxGrad    Time(sec)
--------------------------------------------------------------------------------------
   11    -1329.3675678142135439    -2.22e-04  6.41e-05  5.67e-03  1.23e-03     1.6
               *** Restarting incremental Fock matrix formation ***
   12    -1329.3675806057835871    -1.28e-05  7.90e-05  6.53e-03  1.13e-04     1.6
   13    -1329.3675762012780979     4.40e-06  2.21e-05  2.82e-03  2.77e-04     1.3
   14    -1329.3675825488330702    -6.35e-06  1.69e-05  1.69e-03  3.46e-05     1.3
   15    -1329.3675821111269215     4.38e-07  2.07e-05  1.89e-03  7.19e-05     1.3
   16    -1329.3675826950693590    -5.84e-07  2.62e-05  2.43e-03  1.26e-05     1.3
   17    -1329.3675826812855121     1.38e-08  6.86e-06  5.56e-04  2.97e-05     1.3
   18    -1329.3675827223833039    -4.11e-08  4.00e-05  3.37e-03  1.58e-06     1.3
                  *** Gradient check signals convergence ***

               *****************************************************
               *                     SUCCESS                       *
               *           SCF CONVERGED AFTER  18 CYCLES          *
               *****************************************************

             **** ENERGY FILE WAS UPDATED (m1_00_Vitamin_B2-GFN2_0000-B97-3C-TZ.en.tmp) ****

----------------
TOTAL SCF ENERGY
----------------

Total Energy       :      -1329.36758272238330 Eh          -36173.93097 eV

Components:
Nuclear Repulsion  :       2661.29570552779023 Eh           72417.53778 eV
Electronic Energy  :      -3990.66328825017354 Eh         -108591.46876 eV
One Electron Energy:      -7106.60455812984310 Eh         -193380.54130 eV
Two Electron Energy:       3115.94126987966956 Eh           84789.07255 eV

Virial components:
Potential Energy   :      -2654.24720576846630 Eh          -72225.73835 eV
Kinetic Energy     :       1324.87962304608322 Eh           36051.80738 eV
Virial Ratio       :          2.00338744712971

DFT components:
N(Alpha)           :       98.999986265788 electrons
N(Beta)            :       98.999986265788 electrons
N(Total)           :      197.999972531575 electrons
E(XC)              :     -178.167835001011 Eh       

---------------
SCF CONVERGENCE
---------------

  Last Energy change         ...    4.1098e-08  Tolerance :   1.0000e-08
  Last MAX-Density change    ...    3.3727e-03  Tolerance :   1.0000e-07
  Last RMS-Density change    ...    3.9988e-05  Tolerance :   5.0000e-09
  Last DIIS Error            ...    1.2255e-03  Tolerance :   5.0000e-07
  Last Orbital Gradient      ...    1.5806e-06  Tolerance :   1.0000e-05
  Last Orbital Rotation      ...    1.0334e-05  Tolerance :   1.0000e-05


----------------
ORBITAL ENERGIES
----------------

  NO   OCC          E(Eh)            E(eV) 
   0   2.0000     -18.760399      -510.4964 
   1   2.0000     -18.756669      -510.3949 
   2   2.0000     -18.742331      -510.0048 
   3   2.0000     -18.738190      -509.8921 
   4   2.0000     -18.731085      -509.6987 
   5   2.0000     -18.730304      -509.6775 
   6   2.0000     -14.092068      -383.4647 
   7   2.0000     -14.043919      -382.1545 
   8   2.0000     -14.028047      -381.7226 
   9   2.0000     -13.988588      -380.6488 
  10   2.0000     -10.026249      -272.8281 
  11   2.0000     -10.010663      -272.4040 
  12   2.0000     -10.006476      -272.2901 
  13   2.0000      -9.978866      -271.5387 
  14   2.0000      -9.969392      -271.2810 
  15   2.0000      -9.959715      -271.0176 
  16   2.0000      -9.958141      -270.9748 
  17   2.0000      -9.947172      -270.6763 
  18   2.0000      -9.942976      -270.5621 
  19   2.0000      -9.939658      -270.4718 
  20   2.0000      -9.939018      -270.4544 
  21   2.0000      -9.937233      -270.4059 
  22   2.0000      -9.929567      -270.1973 
  23   2.0000      -9.923212      -270.0243 
  24   2.0000      -9.921051      -269.9655 
  25   2.0000      -9.912987      -269.7461 
  26   2.0000      -9.910062      -269.6665 
  27   2.0000      -1.002407       -27.2769 
  28   2.0000      -0.977625       -26.6025 
  29   2.0000      -0.976573       -26.5739 
  30   2.0000      -0.969193       -26.3731 
  31   2.0000      -0.960041       -26.1240 
  32   2.0000      -0.946135       -25.7456 
  33   2.0000      -0.931934       -25.3592 
  34   2.0000      -0.900953       -24.5162 
  35   2.0000      -0.889253       -24.1978 
  36   2.0000      -0.847795       -23.0697 
  37   2.0000      -0.819263       -22.2933 
  38   2.0000      -0.749011       -20.3816 
  39   2.0000      -0.737605       -20.0713 
  40   2.0000      -0.727439       -19.7946 
  41   2.0000      -0.693097       -18.8601 
  42   2.0000      -0.685396       -18.6506 
  43   2.0000      -0.675645       -18.3852 
  44   2.0000      -0.647584       -17.6217 
  45   2.0000      -0.636554       -17.3215 
  46   2.0000      -0.616246       -16.7689 
  47   2.0000      -0.593842       -16.1593 
  48   2.0000      -0.579973       -15.7819 
  49   2.0000      -0.570735       -15.5305 
  50   2.0000      -0.563448       -15.3322 
  51   2.0000      -0.558227       -15.1901 
  52   2.0000      -0.533822       -14.5260 
  53   2.0000      -0.527601       -14.3568 
  54   2.0000      -0.495612       -13.4863 
  55   2.0000      -0.488811       -13.3012 
  56   2.0000      -0.483457       -13.1555 
  57   2.0000      -0.475872       -12.9491 
  58   2.0000      -0.469741       -12.7823 
  59   2.0000      -0.459381       -12.5004 
  60   2.0000      -0.450577       -12.2608 
  61   2.0000      -0.441157       -12.0045 
  62   2.0000      -0.439951       -11.9717 
  63   2.0000      -0.428676       -11.6649 
  64   2.0000      -0.422760       -11.5039 
  65   2.0000      -0.421330       -11.4650 
  66   2.0000      -0.418196       -11.3797 
  67   2.0000      -0.401045       -10.9130 
  68   2.0000      -0.398967       -10.8564 
  69   2.0000      -0.394081       -10.7235 
  70   2.0000      -0.391831       -10.6623 
  71   2.0000      -0.386489       -10.5169 
  72   2.0000      -0.385197       -10.4817 
  73   2.0000      -0.381339       -10.3768 
  74   2.0000      -0.375981       -10.2310 
  75   2.0000      -0.372105       -10.1255 
  76   2.0000      -0.369880       -10.0649 
  77   2.0000      -0.364399        -9.9158 
  78   2.0000      -0.355012        -9.6604 
  79   2.0000      -0.346157        -9.4194 
  80   2.0000      -0.342615        -9.3230 
  81   2.0000      -0.338254        -9.2044 
  82   2.0000      -0.334070        -9.0905 
  83   2.0000      -0.326501        -8.8846 
  84   2.0000      -0.318373        -8.6634 
  85   2.0000      -0.307047        -8.3552 
  86   2.0000      -0.284069        -7.7299 
  87   2.0000      -0.281341        -7.6557 
  88   2.0000      -0.272206        -7.4071 
  89   2.0000      -0.259424        -7.0593 
  90   2.0000      -0.258635        -7.0378 
  91   2.0000      -0.254494        -6.9251 
  92   2.0000      -0.253689        -6.9032 
  93   2.0000      -0.245418        -6.6782 
  94   2.0000      -0.235438        -6.4066 
  95   2.0000      -0.229113        -6.2345 
  96   2.0000      -0.226263        -6.1569 
  97   2.0000      -0.217996        -5.9320 
  98   2.0000      -0.212210        -5.7745 
  99   0.0000      -0.137649        -3.7456 
 100   0.0000      -0.077235        -2.1017 
 101   0.0000      -0.052804        -1.4369 
 102   0.0000      -0.029404        -0.8001 
 103   0.0000      -0.007730        -0.2103 
 104   0.0000       0.004502         0.1225 
 105   0.0000       0.007912         0.2153 
 106   0.0000       0.016661         0.4534 
 107   0.0000       0.028622         0.7788 
 108   0.0000       0.040769         1.1094 
 109   0.0000       0.047099         1.2816 
*Only the first 10 virtual orbitals were printed.

                    ********************************
                    * MULLIKEN POPULATION ANALYSIS *
                    ********************************

-----------------------
MULLIKEN ATOMIC CHARGES
-----------------------
   0 O :   -0.568024
   1 O :   -0.590249
   2 O :   -0.542765
   3 O :   -0.601333
   4 O :   -0.342796
   5 O :   -0.494232
   6 N :    0.070788
   7 N :    0.046868
   8 N :   -0.340572
   9 N :   -0.380934
  10 C :    0.026317
  11 C :   -0.509377
  12 C :    0.180565
  13 C :   -0.179352
  14 C :   -0.080319
  15 C :    0.115731
  16 C :   -0.036221
  17 C :   -0.124136
  18 C :    0.091854
  19 C :   -0.109790
  20 C :    0.171130
  21 C :   -0.222363
  22 C :    0.170810
  23 C :    0.150783
  24 C :   -0.651960
  25 C :   -0.632515
  26 C :    0.384702
  27 H :    0.188151
  28 H :    0.230259
  29 H :    0.279320
  30 H :    0.131791
  31 H :    0.168955
  32 H :    0.254080
  33 H :    0.144341
  34 H :    0.177155
  35 H :    0.209216
  36 H :    0.434528
  37 H :    0.432991
  38 H :    0.427477
  39 H :    0.201024
  40 H :    0.185370
  41 H :    0.183671
  42 H :    0.196864
  43 H :    0.181527
  44 H :    0.178998
  45 H :    0.362167
  46 H :    0.429503
Sum of atomic charges:   -0.0000000

--------------------------------
MULLIKEN REDUCED ORBITAL CHARGES
--------------------------------
  0 O s       :     3.815308  s :     3.815308
      pz      :     1.875154  p :     4.714913
      px      :     1.372965
      py      :     1.466794
      dz2     :     0.005639  d :     0.037802
      dxz     :     0.003077
      dyz     :     0.005248
      dx2y2   :     0.020083
      dxy     :     0.003756

  1 O s       :     3.788741  s :     3.788741
      pz      :     1.833964  p :     4.770120
      px      :     1.606618
      py      :     1.329539
      dz2     :     0.004234  d :     0.031388
      dxz     :     0.007870
      dyz     :     0.004723
      dx2y2   :     0.006930
      dxy     :     0.007629

  2 O s       :     3.800376  s :     3.800376
      pz      :     1.327384  p :     4.701085
      px      :     1.864453
      py      :     1.509248
      dz2     :     0.015398  d :     0.041304
      dxz     :     0.009817
      dyz     :     0.005471
      dx2y2   :     0.006226
      dxy     :     0.004392

  3 O s       :     3.804464  s :     3.804464
      pz      :     1.407668  p :     4.768198
      px      :     1.789396
      py      :     1.571134
      dz2     :     0.007672  d :     0.028671
      dxz     :     0.003564
      dyz     :     0.005558
      dx2y2   :     0.009500
      dxy     :     0.002377

  4 O s       :     3.842286  s :     3.842286
      pz      :     1.371796  p :     4.470771
      px      :     1.595637
      py      :     1.503338
      dz2     :     0.003971  d :     0.029739
      dxz     :     0.007700
      dyz     :     0.009150
      dx2y2   :     0.003222
      dxy     :     0.005696

  5 O s       :     3.853228  s :     3.853228
      pz      :     1.498904  p :     4.604352
      px      :     1.672938
      py      :     1.432510
      dz2     :     0.002675  d :     0.036652
      dxz     :     0.009936
      dyz     :     0.007641
      dx2y2   :     0.006405
      dxy     :     0.009996

  6 N s       :     3.208874  s :     3.208874
      pz      :     1.404379  p :     3.665260
      px      :     1.105467
      py      :     1.155413
      dz2     :     0.006897  d :     0.055078
      dxz     :     0.010022
      dyz     :     0.008074
      dx2y2   :     0.016331
      dxy     :     0.013754

  7 N s       :     3.476449  s :     3.476449
      pz      :     1.186125  p :     3.427212
      px      :     1.059397
      py      :     1.181691
      dz2     :     0.007164  d :     0.049470
      dxz     :     0.010443
      dyz     :     0.008080
      dx2y2   :     0.014773
      dxy     :     0.009010

  8 N s       :     3.524932  s :     3.524932
      pz      :     1.366236  p :     3.771493
      px      :     1.163116
      py      :     1.242141
      dz2     :     0.007089  d :     0.044146
      dxz     :     0.007519
      dyz     :     0.007317
      dx2y2   :     0.013695
      dxy     :     0.008527

  9 N s       :     3.361053  s :     3.361053
      pz      :     1.393326  p :     3.980889
      px      :     1.278695
      py      :     1.308868
      dz2     :     0.006675  d :     0.038992
      dxz     :     0.005596
      dyz     :     0.008309
      dx2y2   :     0.011135
      dxy     :     0.007277

 10 C s       :     3.155719  s :     3.155719
      pz      :     0.946265  p :     2.748855
      px      :     0.726125
      py      :     1.076465
      dz2     :     0.016334  d :     0.069108
      dxz     :     0.017530
      dyz     :     0.006297
      dx2y2   :     0.017930
      dxy     :     0.011018

 11 C s       :     3.330151  s :     3.330151
      pz      :     0.939471  p :     3.127543
      px      :     1.155798
      py      :     1.032274
      dz2     :     0.012645  d :     0.051683
      dxz     :     0.010032
      dyz     :     0.010378
      dx2y2   :     0.007000
      dxy     :     0.011629

 12 C s       :     3.052727  s :     3.052727
      pz      :     1.021475  p :     2.695737
      px      :     0.936782
      py      :     0.737481
      dz2     :     0.014292  d :     0.070970
      dxz     :     0.009907
      dyz     :     0.016003
      dx2y2   :     0.016088
      dxy     :     0.014679

 13 C s       :     3.213260  s :     3.213260
      pz      :     1.035817  p :     2.896305
      px      :     1.062916
      py      :     0.797572
      dz2     :     0.014980  d :     0.069786
      dxz     :     0.008643
      dyz     :     0.013025
      dx2y2   :     0.014824
      dxy     :     0.018313

 14 C s       :     3.237634  s :     3.237634
      pz      :     0.932181  p :     2.781046
      px      :     0.909923
      py      :     0.938942
      dz2     :     0.007991  d :     0.061639
      dxz     :     0.012070
      dyz     :     0.009848
      dx2y2   :     0.015079
      dxy     :     0.016650

 15 C s       :     3.086251  s :     3.086251
      pz      :     0.946146  p :     2.714396
      px      :     0.916095
      py      :     0.852155
      dz2     :     0.010855  d :     0.083621
      dxz     :     0.016563
      dyz     :     0.012713
      dx2y2   :     0.025150
      dxy     :     0.018340

 16 C s       :     3.155364  s :     3.155364
      pz      :     0.964996  p :     2.816939
      px      :     0.878114
      py      :     0.973828
      dz2     :     0.007763  d :     0.063919
      dxz     :     0.013218
      dyz     :     0.008207
      dx2y2   :     0.015959
      dxy     :     0.018771

 17 C s       :     2.796479  s :     2.796479
      pz      :     1.065821  p :     3.287319
      px      :     1.156661
      py      :     1.064837
      dz2     :     0.004101  d :     0.040337
      dxz     :     0.007716
      dyz     :     0.007420
      dx2y2   :     0.010605
      dxy     :     0.010496

 18 C s       :     3.119729  s :     3.119729
      pz      :     0.975646  p :     2.725487
      px      :     0.834096
      py      :     0.915746
      dz2     :     0.008028  d :     0.062930
      dxz     :     0.008979
      dyz     :     0.011766
      dx2y2   :     0.018361
      dxy     :     0.015795

 19 C s       :     3.197028  s :     3.197028
      pz      :     0.945164  p :     2.847828
      px      :     1.062427
      py      :     0.840237
      dz2     :     0.013845  d :     0.064934
      dxz     :     0.008299
      dyz     :     0.015530
      dx2y2   :     0.009868
      dxy     :     0.017392

 20 C s       :     3.320291  s :     3.320291
      pz      :     0.785227  p :     2.459173
      px      :     0.785161
      py      :     0.888785
      dz2     :     0.006682  d :     0.049406
      dxz     :     0.009362
      dyz     :     0.008070
      dx2y2   :     0.012607
      dxy     :     0.012685

[...]
 95:   1370.49   0.020425  103.22  0.004651  (-0.057117  0.017290 -0.033010)
 96:   1382.88   0.000980    4.95  0.000221  ( 0.008823  0.003361  0.011486)
 97:   1385.58   0.000755    3.82  0.000170  ( 0.002028 -0.006524  0.011109)
 98:   1389.76   0.011426   57.74  0.002566  ( 0.048033  0.012681 -0.009880)
 99:   1397.98   0.002615   13.21  0.000584  (-0.004199  0.019807  0.013179)
100:   1406.62   0.004951   25.02  0.001098  ( 0.000840 -0.032591  0.005967)
101:   1411.16   0.005540   28.00  0.001225  (-0.032764 -0.010205 -0.006899)
102:   1416.06   0.016856   85.18  0.003715  (-0.055408 -0.023791 -0.008862)
103:   1423.60   0.000695    3.51  0.000152  ( 0.009069  0.007932 -0.002671)
104:   1430.13   0.010365   52.38  0.002262  ( 0.045247 -0.010796  0.009896)
105:   1453.85   0.005970   30.17  0.001281  (-0.027920  0.014108 -0.017403)
106:   1457.47   0.010240   51.75  0.002193  (-0.026507 -0.030918 -0.023108)
107:   1478.92   0.000027    0.14  0.000006  (-0.001918  0.000302  0.001412)
108:   1479.97   0.008361   42.25  0.001763  (-0.019095  0.036776  0.006782)
109:   1494.62   0.011757   59.41  0.002455  ( 0.011211  0.048227 -0.001798)
110:   1498.25   0.006651   33.61  0.001385  (-0.018661  0.030271 -0.010994)
111:   1499.12   0.004636   23.43  0.000965  ( 0.004316 -0.003870 -0.030520)
112:   1500.95   0.003318   16.77  0.000690  (-0.005040  0.019768 -0.016544)
113:   1503.62   0.004113   20.79  0.000854  ( 0.006331 -0.021389 -0.018869)
114:   1521.95   0.000425    2.15  0.000087  ( 0.008493  0.000323  0.003854)
115:   1542.80   0.000475    2.40  0.000096  (-0.005308  0.008011 -0.001937)
116:   1564.91   0.112816  570.13  0.022497  ( 0.126645  0.077586 -0.020940)
117:   1592.86   0.139784  706.41  0.027386  (-0.134593 -0.092545  0.026569)
118:   1657.07   0.002234   11.29  0.000421  ( 0.005412  0.016210 -0.011343)
119:   1688.69   0.121083  611.90  0.022376  (-0.074144 -0.107715  0.072635)
120:   1753.97   0.069406  350.75  0.012349  ( 0.062515 -0.058802  0.070589)
121:   2914.22   0.013540   68.43  0.001450  ( 0.010983  0.008739  0.035397)
122:   2981.28   0.016050   81.11  0.001680  ( 0.017686 -0.000693 -0.036970)
123:   2999.22   0.004092   20.68  0.000426  (-0.010040 -0.016758  0.006641)
124:   3000.58   0.008812   44.53  0.000916  (-0.025511 -0.016189  0.001889)
125:   3027.12   0.005977   30.20  0.000616  (-0.016288  0.012840 -0.013638)
126:   3042.75   0.002878   14.54  0.000295  (-0.003180  0.016872 -0.000608)
127:   3047.96   0.005462   27.60  0.000559  (-0.007384  0.011573  0.019256)
128:   3049.50   0.000297    1.50  0.000030  (-0.001230  0.003115  0.004378)
129:   3068.61   0.002647   13.38  0.000269  ( 0.014149 -0.006272 -0.005447)
130:   3096.76   0.003841   19.41  0.000387  ( 0.010551 -0.011940  0.011542)
131:   3101.48   0.002257   11.40  0.000227  (-0.007258  0.009906 -0.008733)
132:   3112.18   0.000525    2.65  0.000053  (-0.002966  0.004259 -0.005069)
133:   3142.51   0.000173    0.87  0.000017  ( 0.002336  0.002423 -0.002415)
134:   3156.58   0.001230    6.22  0.000122  ( 0.001014  0.009175 -0.006034)
135:   3173.17   0.000229    1.16  0.000023  (-0.003586 -0.001782  0.002545)
136:   3389.53   0.071102  359.32  0.006546  (-0.069984 -0.004028 -0.040399)
137:   3450.00   0.106624  538.83  0.009644  (-0.019928 -0.044800  0.085090)
138:   3535.35   0.011296   57.09  0.000997  ( 0.030019  0.009521  0.002306)
139:   3703.15   0.008421   42.56  0.000710  ( 0.009675 -0.022471  0.010539)
140:   3711.24   0.001543    7.80  0.000130  ( 0.001412  0.004333  0.010440)

* The epsilon (eps) is given for a Dirac delta lineshape.
** The dipole moment derivative (T) already includes vibrational overlap.

The first frequency considered to be a vibration is 6
The total number of vibrations considered is 135


--------------------------
THERMOCHEMISTRY AT 298.15K
--------------------------

Temperature         ...   298.15 K
Pressure            ...     1.00 atm
Total Mass          ...   376.37 AMU
Quasi RRHO          ...     True
Cut-Off Frequency   ...     1.00 cm^-1

Throughout the following assumptions are being made:
  (1) The electronic state is orbitally nondegenerate
  (2) There are no thermally accessible electronically excited states
  (3) Hindered rotations indicated by low frequency modes are not
      treated as such but are treated as vibrations and this may
      cause some error
  (4) All equations used are the standard statistical mechanics
      equations for an ideal gas
  (5) All vibrations are strictly harmonic

freq.      25.89  E(vib)   ...       0.56 
freq.      37.84  E(vib)   ...       0.54 
freq.      52.21  E(vib)   ...       0.52 
freq.      63.92  E(vib)   ...       0.51 
freq.      71.81  E(vib)   ...       0.50 
freq.      84.35  E(vib)   ...       0.48 
freq.      91.72  E(vib)   ...       0.47 
freq.     111.62  E(vib)   ...       0.45 
freq.     117.61  E(vib)   ...       0.44 
freq.     138.71  E(vib)   ...       0.42 
freq.     145.79  E(vib)   ...       0.41 
freq.     159.51  E(vib)   ...       0.39 
freq.     172.64  E(vib)   ...       0.38 
freq.     194.60  E(vib)   ...       0.36 
freq.     197.16  E(vib)   ...       0.35 
freq.     208.05  E(vib)   ...       0.34 
freq.     224.77  E(vib)   ...       0.33 
freq.     248.32  E(vib)   ...       0.31 
freq.     258.19  E(vib)   ...       0.30 
freq.     277.61  E(vib)   ...       0.28 
freq.     294.83  E(vib)   ...       0.27 
freq.     308.53  E(vib)   ...       0.26 
freq.     317.35  E(vib)   ...       0.25 
freq.     321.41  E(vib)   ...       0.25 
freq.     340.23  E(vib)   ...       0.23 
freq.     348.16  E(vib)   ...       0.23 
freq.     367.29  E(vib)   ...       0.21 
freq.     389.77  E(vib)   ...       0.20 
freq.     397.31  E(vib)   ...       0.20 
freq.     418.14  E(vib)   ...       0.18 
freq.     434.43  E(vib)   ...       0.17 
freq.     443.57  E(vib)   ...       0.17 
freq.     461.56  E(vib)   ...       0.16 
freq.     472.21  E(vib)   ...       0.15 
freq.     494.63  E(vib)   ...       0.14 
freq.     501.27  E(vib)   ...       0.14 
freq.     520.27  E(vib)   ...       0.13 
freq.     531.94  E(vib)   ...       0.13 
freq.     535.34  E(vib)   ...       0.13 
freq.     574.17  E(vib)   ...       0.11 
freq.     575.01  E(vib)   ...       0.11 
freq.     602.81  E(vib)   ...       0.10 
freq.     605.95  E(vib)   ...       0.10 
freq.     609.92  E(vib)   ...       0.10 
freq.     649.92  E(vib)   ...       0.08 
freq.     669.08  E(vib)   ...       0.08 
freq.     671.12  E(vib)   ...       0.08 
freq.     697.75  E(vib)   ...       0.07 
freq.     717.02  E(vib)   ...       0.07 
freq.     749.43  E(vib)   ...       0.06 
freq.     757.11  E(vib)   ...       0.06 
freq.     780.74  E(vib)   ...       0.05 
freq.     787.39  E(vib)   ...       0.05 
freq.     796.51  E(vib)   ...       0.05 
freq.     836.52  E(vib)   ...       0.04 
freq.     852.98  E(vib)   ...       0.04 
freq.     869.26  E(vib)   ...       0.04 
freq.     870.72  E(vib)   ...       0.04 
freq.     891.01  E(vib)   ...       0.04 
freq.     911.36  E(vib)   ...       0.03 
freq.     955.53  E(vib)   ...       0.03 
freq.     993.15  E(vib)   ...       0.02 
freq.     998.19  E(vib)   ...       0.02 
freq.    1019.17  E(vib)   ...       0.02 
freq.    1030.30  E(vib)   ...       0.02 
freq.    1035.57  E(vib)   ...       0.02 
freq.    1039.31  E(vib)   ...       0.02 
freq.    1040.01  E(vib)   ...       0.02 
freq.    1041.32  E(vib)   ...       0.02 
freq.    1047.67  E(vib)   ...       0.02 
freq.    1050.88  E(vib)   ...       0.02 
freq.    1074.29  E(vib)   ...       0.02 
freq.    1113.83  E(vib)   ...       0.01 
freq.    1130.20  E(vib)   ...       0.01 
freq.    1154.04  E(vib)   ...       0.01 
freq.    1164.42  E(vib)   ...       0.01 
freq.    1186.35  E(vib)   ...       0.01 
freq.    1208.70  E(vib)   ...       0.01 
freq.    1219.69  E(vib)   ...       0.01 
freq.    1230.77  E(vib)   ...       0.01 
freq.    1250.87  E(vib)   ...       0.01 
freq.    1270.65  E(vib)   ...       0.01 
freq.    1293.58  E(vib)   ...       0.01 
freq.    1311.75  E(vib)   ...       0.01 
freq.    1314.99  E(vib)   ...       0.01 
freq.    1326.00  E(vib)   ...       0.01 
freq.    1335.72  E(vib)   ...       0.01 
freq.    1350.65  E(vib)   ...       0.01 
freq.    1360.92  E(vib)   ...       0.01 
freq.    1370.49  E(vib)   ...       0.01 
freq.    1382.88  E(vib)   ...       0.01 
freq.    1385.58  E(vib)   ...       0.00 
freq.    1389.76  E(vib)   ...       0.00 
freq.    1397.98  E(vib)   ...       0.00 
freq.    1406.62  E(vib)   ...       0.00 
freq.    1411.16  E(vib)   ...       0.00 
freq.    1416.06  E(vib)   ...       0.00 
freq.    1423.60  E(vib)   ...       0.00 
freq.    1430.13  E(vib)   ...       0.00 
freq.    1453.85  E(vib)   ...       0.00 
freq.    1457.47  E(vib)   ...       0.00 
freq.    1478.92  E(vib)   ...       0.00 
freq.    1479.97  E(vib)   ...       0.00 
freq.    1494.62  E(vib)   ...       0.00 
freq.    1498.25  E(vib)   ...       0.00 
freq.    1499.12  E(vib)   ...       0.00 
freq.    1500.95  E(vib)   ...       0.00 
freq.    1503.62  E(vib)   ...       0.00 
freq.    1521.95  E(vib)   ...       0.00 
freq.    1542.80  E(vib)   ...       0.00 
freq.    1564.91  E(vib)   ...       0.00 
freq.    1592.86  E(vib)   ...       0.00 
freq.    1657.07  E(vib)   ...       0.00 
freq.    1688.69  E(vib)   ...       0.00 
freq.    1753.97  E(vib)   ...       0.00 
freq.    2914.22  E(vib)   ...       0.00 
freq.    2981.28  E(vib)   ...       0.00 
freq.    2999.22  E(vib)   ...       0.00 
freq.    3000.58  E(vib)   ...       0.00 
freq.    3027.12  E(vib)   ...       0.00 
freq.    3042.75  E(vib)   ...       0.00 
freq.    3047.96  E(vib)   ...       0.00 
freq.    3049.50  E(vib)   ...       0.00 
freq.    3068.61  E(vib)   ...       0.00 
freq.    3096.76  E(vib)   ...       0.00 
freq.    3101.48  E(vib)   ...       0.00 
freq.    3112.18  E(vib)   ...       0.00 
freq.    3142.51  E(vib)   ...       0.00 
freq.    3156.58  E(vib)   ...       0.00 
freq.    3173.17  E(vib)   ...       0.00 
freq.    3389.53  E(vib)   ...       0.00 
freq.    3450.00  E(vib)   ...       0.00 
freq.    3535.35  E(vib)   ...       0.00 
freq.    3703.15  E(vib)   ...       0.00 
freq.    3711.24  E(vib)   ...       0.00 

------------
INNER ENERGY
------------

The inner energy is: U= E(el) + E(ZPE) + E(vib) + E(rot) + E(trans)
    E(el)   - is the total energy from the electronic structure calculation
              = E(kin-el) + E(nuc-el) + E(el-el) + E(nuc-nuc)
    E(ZPE)  - the the zero temperature vibrational energy from the frequency calculation
    E(vib)  - the the finite temperature correction to E(ZPE) due to population
              of excited vibrational states
    E(rot)  - is the rotational thermal energy
    E(trans)- is the translational thermal energy

Summary of contributions to the inner energy U:
Electronic energy                ...  -1329.66116677 Eh
Zero point energy                ...      0.36954460 Eh     231.89 kcal/mol
Thermal vibrational correction   ...      0.02201345 Eh      13.81 kcal/mol
Thermal rotational correction    ...      0.00141627 Eh       0.89 kcal/mol
Thermal translational correction ...      0.00141627 Eh       0.89 kcal/mol
-----------------------------------------------------------------------
Total thermal energy                  -1329.26677618 Eh


Summary of corrections to the electronic energy:
(perhaps to be used in another calculation)
Total thermal correction                  0.02484599 Eh      15.59 kcal/mol
Non-thermal (ZPE) correction              0.36954460 Eh     231.89 kcal/mol
-----------------------------------------------------------------------
Total correction                          0.39439059 Eh     247.48 kcal/mol


--------
ENTHALPY
--------

The enthalpy is H = U + kB*T
                kB is Boltzmann's constant
Total thermal energy              ...  -1329.26677618 Eh 
Thermal Enthalpy correction       ...      0.00094421 Eh       0.59 kcal/mol
-----------------------------------------------------------------------
Total Enthalpy                    ...  -1329.26583197 Eh


Note: Only C1 symmetry has been detected, increase convergence thresholds 
      if your molecule has a higher symmetry. Symmetry factor of 1.0 is   
      used for the rotational entropy correction. 
 

Note: Rotational entropy computed according to Herzberg 
Infrared and Raman Spectra, Chapter V,1, Van Nostrand Reinhold, 1945 
Point Group:  C1, Symmetry Number:   1  
Rotational constants in cm-1:     0.008547     0.005235     0.003575 

Vibrational entropy computed according to the QRRHO of S. Grimme
Chem.Eur.J. 2012 18 9955 using a reference frequency of 100.0 cm-1


-------
ENTROPY
-------

The entropy contributions are T*S = T*(S(el)+S(vib)+S(rot)+S(trans))
     S(el)   - electronic entropy
     S(vib)  - vibrational entropy
     S(rot)  - rotational entropy
     S(trans)- translational entropy
The entropies will be listed as multiplied by the temperature to get
units of energy

Electronic entropy                ...      0.00000000 Eh      0.00 kcal/mol
Vibrational entropy               ...      0.03838845 Eh     24.09 kcal/mol
Rotational entropy                ...      0.01689825 Eh     10.60 kcal/mol
Translational entropy             ...      0.02074837 Eh     13.02 kcal/mol
-----------------------------------------------------------------------
Final entropy term                ...      0.07603506 Eh     47.71 kcal/mol

In case the symmetry of your molecule has not been determined correctly
or in case you have a reason to use a different symmetry number we print 
out the resulting rotational entropy values for sn=1,12:

 non-linear molecules -----------------------------------
|  sn= 1 | S(rot)=       0.01689825 Eh     10.60 kcal/mol|
|  sn= 2 | S(rot)=       0.01624379 Eh     10.19 kcal/mol|
|  sn= 3 | S(rot)=       0.01586096 Eh      9.95 kcal/mol|
|  sn= 4 | S(rot)=       0.01558934 Eh      9.78 kcal/mol|
|  sn= 5 | S(rot)=       0.01537865 Eh      9.65 kcal/mol|
|  sn= 6 | S(rot)=       0.01520650 Eh      9.54 kcal/mol|
|  sn= 7 | S(rot)=       0.01506096 Eh      9.45 kcal/mol|
|  sn= 8 | S(rot)=       0.01493488 Eh      9.37 kcal/mol|
|  sn= 9 | S(rot)=       0.01482367 Eh      9.30 kcal/mol|
|  sn=10 | S(rot)=       0.01472419 Eh      9.24 kcal/mol|
|  sn=11 | S(rot)=       0.01463420 Eh      9.18 kcal/mol|
|  sn=12 | S(rot)=       0.01455205 Eh      9.13 kcal/mol|
 linear molecules ---------------------------------------
|  Dinfh | S(rot)=       0.01064506 Eh      6.68 kcal/mol|
|  Cinfv | S(rot)=       0.01129951 Eh      7.09 kcal/mol|
 --------------------------------------------------------


-------------------
GIBBS FREE ENERGY
-------------------

The Gibbs free energy is G = H - T*S

Total enthalpy                    ...  -1329.26583197 Eh 
Total entropy correction          ...     -0.07603506 Eh    -47.71 kcal/mol
-----------------------------------------------------------------------
Final Gibbs free energy         ...  -1329.34186703 Eh

For completeness - the Gibbs free energy minus the electronic energy
G-E(el)                           ...      0.31929974 Eh    200.36 kcal/mol


Maximum memory used throughout the entire PROP-calculation: 167.6 MB

--------------------------------
SUGGESTED CITATIONS FOR THIS RUN
--------------------------------

Below you find a list of papers that are relevant to this ORCA run
We neither can nor want to force you to cite these papers, but we appreciate if you do
You receive ORCA, which is the product of decades of hard work by many enthusiastic individuals, for free
The only thing we kindly ask in return is that you cite our papers,
We deeply appreciate it, if you show your appreciation for ORCA by not just citing the generic ORCA reference.

Please note that relegating all ORCA citations to the supporting information does *not* help us.
SI sections are not indexed - citations you put there will not count into any citation statistics
But we need these citations in order to attract the funding resources that allow us to do what we are doing

Therefore, if you are a happy ORCA user, please consider citing a few of the papers listed below in the main body of your paper

In addition to the list printed below, the program has created the file m1_00_Vitamin_B2-GFN2_0000-B97-3C-TZ.bibtex that contains the list in bibtex format
You can import this file easily into all common literature databanks and citation aid programs


List of essential papers. We consider these as the minimum necessary citations

  1. Neese,F.
     Software update: the ORCA program system, version 5.0
     WIRES Comput. Molec. Sci., 2022 12(1)e1606
     doi.org/10.1002/wcms.1606

List of papers to cite with high priority. The work reported in these papers was absolutely
necessary for this run to complete.
Our perspective: the developers of density functionals and basis sets usually get cited in chemistry papers
Good! But without the algorithms to do something with them, the functionals or basis sets would not do anything.
Hence, in our opinion, the algorithm design and method developments papers are equally worthy of getting cited

  1. Neese,F.
     An improvement of the resolution of the identity approximation for the formation of the Coulomb matrix
     J. Comp. Chem., 2003 24(14)1740-1747
     doi.org/10.1002/jcc.10318
  2. Bykov,D.; Petrenko,T.; Izsak,R.; Kossmann,S.; Becker,U.; Valeev,E.; Neese,F.
     Efficient implementation of the analytic second derivatives of Hartree-Fock and hybrid DFT energies: a detailed analysis of different approximations
     Molec. Phys., 2015 113 1961-1977
     doi.org/10.1080/00268976.2015.1025114
  3. Neese,F.
     The SHARK Integral Generation and Digestion System
     J. Comp. Chem., 2022  1-16
     doi.org/10.1002/jcc.26942
  4. Grimme,S.; Antony,J.; Ehrlich,S.; Krieg,H.
     A consistent and accurate ab initio parametrization of density functional dispersion correction (DFT-D) for the 94 elements H-Pu
     J. Chem. Phys., 2010 132 154104
     doi.org/10.1063/1.3382344
  5. Grimme,S.; Ehrlich,S.; Goerigk,L.
     Effect of the damping function in dispersion corrected density functional theory
     J. Comput. Chem., 2011 32(7)1456-1465
     doi.org/10.1002/jcc.21759

List of suggested additional citations. These are papers that are important in the 'surrounding' of 
of this run, or papers that preceded the highly important papers. If you like your results we are grateful for a citation.

  1. Neese,F.
     The ORCA program system
     WIRES Comput. Molec. Sci., 2012 2(1)73-78
     doi.org/10.1002/wcms.81
  2. Neese,F.
     Software update: the ORCA program system, version 4.0
     WIRES Comput. Molec. Sci., 2018 8(1)1-6
     doi.org/10.1002/wcms.1327
  3. Neese,F.; Wennmohs,F.; Becker,U.; Riplinger,C.
     The ORCA quantum chemistry program package
     J. Chem. Phys., 2020 152 Art. No. L224108
     doi.org/10.1063/5.0004608

List of optional additional citations

  1. Neese,F.
     Approximate second-order SCF convergence for spin unrestricted wavefunctions
     Chem. Phys. Lett., 2000 325(1-3)93-98
     doi.org/10.1016/s0009-2614(00)00662-x

Timings for individual modules:

Sum of individual times          ...     1030.120 sec (=  17.169 min)
Startup calculation              ...       65.349 sec (=   1.089 min)   6.3 %
SCF iterations                   ...      239.543 sec (=   3.992 min)  23.3 %
Property integrals               ...      216.667 sec (=   3.611 min)  21.0 %
SCF Response                     ...      318.173 sec (=   5.303 min)  30.9 %
Property calculations            ...       80.521 sec (=   1.342 min)   7.8 %
SCF Gradient evaluation          ...      109.667 sec (=   1.828 min)  10.6 %
Geometry relaxation              ...        0.199 sec (=   0.003 min)   0.0 %
                             ****ORCA TERMINATED NORMALLY****
TOTAL RUN TIME: 0 days 0 hours 17 minutes 13 seconds 81 msec
