
                                 *****************
                                 * O   R   C   A *
                                 *****************

                                            #,                                       
                                            ###                                      
                                            ####                                     
                                            #####                                    
                                            ######                                   
                                           ########,                                 
                                     ,,################,,,,,                         
                               ,,#################################,,                 
                          ,,##########################################,,             
                       ,#########################################, ''#####,          
                    ,#############################################,,   '####,        
                  ,##################################################,,,,####,       
                ,###########''''           ''''###############################       
              ,#####''   ,,,,##########,,,,          '''####'''          '####       
            ,##' ,,,,###########################,,,                        '##       
           ' ,,###''''                  '''############,,,                           
         ,,##''                                '''############,,,,        ,,,,,,###''
      ,#''                                            '''#######################'''  
     '                                                          ''''####''''         
             ,#######,   #######,   ,#######,      ##                                
            ,#'     '#,  ##    ##  ,#'     '#,    #''#        ,####,   ,####,        
            ##       ##  ##   ,#'  ##            #'  '#       #'       #'  '#        
            ##       ##  #######   ##           ,######,      #####,   #    #        
            '#,     ,#'  ##    ##  '#,     ,#' ,#      #,     #,   #   #,  ,#        
             '#######'   ##     ##  '#######'  #'      '#     '####' # '####'        



                #########################################################
                #                        -***-                          #
                #          Department of theory and spectroscopy        #
                #                                                       #
                #                      Frank Neese                      #
                #                                                       #
                #     Directorship, Architecture, Infrastructure        #
                #                    SHARK, DRIVERS                     #
                #        Core code/Algorithms in most modules           #
                #                                                       #
                #        Max Planck Institute fuer Kohlenforschung      #
                #                Kaiser Wilhelm Platz 1                 #
                #                 D-45470 Muelheim/Ruhr                 #
                #                      Germany                          #
                #                                                       #
                #                  All rights reserved                  #
                #                        -***-                          #
                #########################################################


                         Program Version 6.0.1  -  RELEASE   -


 With contributions from (in alphabetic order):
[Max-Planck-Institut fuer Kohlenforschung]                               
  Daniel Aravena         : Magnetic Suceptibility                        
  Michael Atanasov       : Ab Initio Ligand Field Theory (pilot matlab implementation)
  Alexander A. Auer      : GIAO ZORA, VPT2 properties, NMR spectrum      
  Ute Becker             : All parallelization in ORCA, NUMFREQ, NUMCALC 
  Giovanni Bistoni       : ED, misc. LED, open-shell LED, HFLD           
  Martin Brehm           : Molecular dynamics                            
  Dmytro Bykov           : pre 5.0 version of the SCF Hessian            
  Marcos Casanova-Páez   : Triplet and SCS-CIS(D). UHF-(DLPNO)-IP/EA/STEOM-CCSD. UHF-CVS-IP/STEOM-CCSD   
  Vijay G. Chilkuri      : MRCI spin determinant printing, contributions to CSF-ICE 
  Pauline Colinet        : FMM embedding                                 
  Dipayan Datta          : RHF DLPNO-CCSD density                        
  Achintya Kumar Dutta   : EOM-CC, STEOM-CC                              
  Nicolas Foglia         : Exact transition moments, OPA infrastructure, MCD improvements    
  Dmitry Ganyushin       : Spin-Orbit,Spin-Spin,Magnetic field MRCI      
  Miquel Garcia-Rates    : C-PCM and meta-GGA Hessian, CCSD/C-PCM, Gaussian charge scheme 
  Tiago L. C. Gouveia    : GS-ROHF, GS-ROCIS                             
  Yang Guo               : DLPNO-NEVPT2, F12-NEVPT2, CIM, IAO-localization        
  Andreas Hansen         : Spin unrestricted coupled pair/coupled cluster methods 
  Ingolf Harden          : AUTO-CI MPn and infrastructure                
  Benjamin Helmich-Paris : MC-RPA, TRAH-(SCF,CASSCF), AVAS, COSX integrals, SCF dyn. polar. 
  Lee Huntington         : MR-EOM, pCC                                   
  Robert Izsak           : Overlap fitted RIJCOSX, COSX-SCS-MP3, EOM     
  Riya Kayal             : Wick's Theorem for AUTO-CI, AUTO-CI UHF-CCSDT 
  Emily Kempfer          : AUTO-CI, RHF CISDT and CCSDT                  
  Christian Kollmar      : KDIIS, OOCD, Brueckner-CCSD(T), CCSD density, CASPT2, CASPT2-K, improved NEVPT2 
  Axel Koslowski         : Symmetry handling                             
  Simone Kossmann        : meta-GGA functionals, TD-DFT gradient, OOMP2, (MP2 Hessian; deprecated post 5.0) 
  Lucas Lang             : DCDCAS                                        
  Marvin Lechner         : AUTO-CI (C++ implementation), FIC-MRCC        
  Spencer Leger          : CASSCF response                               
  Dagmar Lenk            : GEPOL surface, SMD, ORCA-2-JSON               
  Dimitrios Liakos       : Extrapolation schemes; Compound Job, initial MDCI parallelization 
  Dimitrios Manganas     : Further ROCIS development; embedding schemes. LFT, Crystal Embedding 
  Dimitrios Pantazis     : SARC Basis sets                               
  Anastasios Papadopoulos: AUTO-CI, single reference methods and gradients 
  Taras Petrenko         : pre 6.0 DFT Hessian and TD-DFT gradient, (ASA, deprecated), ECA, 1-Electron XAS/XES, NRVS 
  Peter Pinski           : DLPNO-MP2, DLPNO-MP2 Gradient                 
  Christoph Reimann      : Effective Core Potentials                     
  Marius Retegan         : Local ZFS, SOC                                
  Christoph Riplinger    : Optimizer, TS searches, QM/MM, DLPNO-CCSD(T), (RO)-DLPNO pert. Triples 
  Michael Roemelt        : Original ROCIS implementation                 
  Masaaki Saitow         : Open-shell DLPNO-CCSD energy and density      
  Barbara Sandhoefer     : DKH picture change effects                    
  Kantharuban Sivalingam : CASSCF convergence/infrastructure, NEVPT2 and variants, FIC-MRCI 
  Bernardo de Souza      : ESD, SOC TD-DFT                               
  Georgi L. Stoychev     : AutoAux, RI-MP2 NMR, DLPNO-MP2 response, X2C  
  Van Anh Tran           : RI-MP2 g-tensors                              
  Willem Van den Heuvel  : Paramagnetic NMR                              
  Zikuan Wang            : NOTCH, Electric field optimization            
  Frank Wennmohs         : Technical directorship and infrastructure     
  Hang Xu                : AUTO-CI-Response properties                   
                                                                         
[FACCTs GmbH]                                                            
  Markus Bursch, Miquel Garcia-Rates, Christoph Riplinger, Bernardo de Souza, Georgi L. Stoychev 
                                                                 
  APM, Basis sets (HGBS, AHGBS, def-TZVP (Ac-Lr), def2-XVPD (La-Lu)), CI-OPT, improved COSX, DLPNO-Multilevel,           
  DOCKER, DRACO, updates on ESD, GOAT, IRC, LR-CPCM, MBIS, meta-GGA TD-DFT gradient, ML-optimized integration grids, 
  MM, NACMEs, nearIR, NEB, NEB-TS, NL-DFT gradient (VV10), 2- and 3-layer-ONIOM, interface openCOSMO-RS, QMMM,   
  Crystal-QMMM, SF, symmetry and pop. for TD-DFT, r2SCAN hybrids, SOLVATOR                                   
                                                                         
[Other institutions]                                                     
  V. Asgeirsson          : NEB                                           
  Christoph Bannwarth    : sTDA-DFT, sTD-DFT, PBEh-3c, B97-3c, D3        
  Sebastian Ehlert       : rSCAN, r2SCAN, r2SCAN-3c, D4, dhf basis sets  
  Marvin Friede          : D4 for Fr, Ra, Ac-Lr                          
  Lars Goerigk           : TD-DFT with DH, B97 family of functionals     
  Stefan Grimme          : VdW corrections, initial TS optimization, DFT functionals, gCP, sTDA/sTD-DF 
  Waldemar Hujo          : DFT-NL                                        
  H. Jonsson             : NEB                                           
  Holger Kruse           : gCP                                           
  Marcel Mueller         : wB97X-3c, vDZP basis set                      
  Hagen Neugebauer       : wr2SCAN                                       
  Tobias Risthaus        : range-separated hybrid DFT                    
  Lukas Wittmann         : regularized MP2, r2SCAN double-hybrids, wr2SCAN        
                                                                         
We gratefully acknowledge several colleagues who have allowed us to      
interface, adapt or use parts of their codes:                            
  Ed Valeev, F. Pavosevic, A. Kumar             : LibInt (2-el integral package), F12 methods 
  Garnet Chan, S. Sharma, J. Yang, R. Olivares  : DMRG                   
  Ulf Ekstrom                                   : XCFun DFT Library      
  Mihaly Kallay                                 : mrcc  (arbitrary order and MRCC methods)
  Frank Weinhold                                : gennbo (NPA and NBO analysis)           
  Simon Mueller                                 : openCOSMO-RS                            
  Christopher J. Cramer and Donald G. Truhlar   : smd solvation model                     
  S Lehtola, MJT Oliveira, MAL Marques          : LibXC Library                           
  Liviu Ungur et al                             : ANISO software                          


 Your calculation uses the libint2 library for the computation of 2-el integrals
 For citations please refer to: http://libint.valeyev.net

 Your ORCA version has been built with support for libXC version: 6.2.2
 For citations please refer to: https://libxc.gitlab.io

 This ORCA versions uses:
   CBLAS   interface :  Fast vector & matrix operations
   LAPACKE interface :  Fast linear algebra routines
   SCALAPACK package :  Parallel linear algebra routines
   Shared memory     :  Shared parallel matrices
   BLAS/LAPACK       :  OpenBLAS 0.3.27  USE64BITINT DYNAMIC_ARCH NO_AFFINITY Zen SINGLE_THREADED
        Core in use  :  Zen
   Copyright (c) 2011-2014, The OpenBLAS Project


NOTE: MaxCore=6000 MB was set to SCF,MP2,MDCI,CIPSI,MRCI and CIS
      => If you want to overwrite this, your respective input block should be placed after the MaxCore statement
Your calculation utilizes the atom-pairwise dispersion correction
with the Becke-Johnson damping scheme (D3BJ)


Your calculation employs the composite approach B97-3c by Grimme and coworkers.
For the correct reference, please check the publication list of the Grimme group:
http://www.thch.uni-bonn.de/tc/index.php?section=publikationen&subsection=grimme#2017
   

XCFun DFT library Copyright 2009-2010 Ulf Ekstrom and contributors.
See http://admol.org/xcfun for more information.
This is free software; see the source code for copying conditions.
There is ABSOLUTELY NO WARRANTY; not even for MERCHANTABILITY or FITNESS FOR A PARTICULAR PURPOSE.
For details see the documentation.
Scientific users of this library should cite U. Ekstrom, L. Visscher, R. Bast, A. J. Thorvaldsen and K. Ruud;
J.Chem.Theor.Comp. 2010, DOI: 10.1021/ct100117s
XCFun Version 0.99 

================================================================================

----- Orbital basis set information -----
Your calculation utilizes the basis: def2-mTZVP
----- AuxJ basis set information -----
Your calculation utilizes the basis: def2-mTZVP/J
================================================================================
                                        WARNINGS
                       Please study these warnings very carefully!
================================================================================


WARNING: Geometry Optimization
  ===> : Switching off AutoStart
         For restart on a previous wavefunction, please use MOREAD

================================================================================
                                       INPUT FILE
================================================================================
NAME = m1_00_Vitamin_B9-GFN2_0004-B97-3C-TZ.inp
|  1> %pal nprocs 16 end
|  2> %MaxCore 6000
|  3> # put your comments here
|  4> ! B97-3C  OPT  FREQ DEFGRID3 NOTRAH
|  5> %scf MaxIter 800 end
|  6> %output
|  7> Print [P_Hirshfeld] 1
|  8> end
|  9> %geom
| 10> MaxIter 3000
| 11>  TolE 1e-6 #TolE 5e-6 Energy change (a.u.)
| 12>  TolRMSG 3e-5 #TolRMSG 1e-4 RMS gradient (a.u.)
| 13>  TolMaxG 1e-4 #TolMaxG 3e-3 Max. element of gradient (a.u.)
| 14>  TolRMSD 2e-3 #TolRMSD 2e-3 RMS displacement (a.u.)
| 15>  TolMaxD 4e-3 #TolMaxD 4e-3 Max. displacement (a.u.)
| 16> end
| 17> * xyz 0 1
| 18>  O 0.90176708723849 -5.65176391999057 -2.46861518656668
| 19>  O -2.96901560834366 -4.64494775063913 0.23269063945971
| 20>  O 1.56978503862149 -4.93675354650212 -0.46395904415267
| 21>  O -2.35490459316486 -1.54470332291266 -0.68222655141115
| 22>  O -4.17040198953421 -2.37433283225358 -1.67972582727399
| 23>  O -3.88411758296768 -0.95591495735886 1.38308572065037
| 24>  N -0.84963142498166 -3.88203528292522 0.10763147144849
| 25>  N -2.81426038485179 -1.80070027865294 5.85670394685895
| 26>  N -4.75004855748016 -1.53529506664637 4.03299804888544
| 27>  N -7.16861233386734 -2.84997573071838 4.27823216028092
| 28>  N -5.57707613285722 -2.24274600025295 0.63367202303808
| 29>  N -7.24728816125386 -3.19129982575368 1.99549146123883
| 30>  N -7.22066962687093 -3.57926931601415 -0.26216903645993
| 31>  C -0.62309257059293 -4.30621513837524 -1.24735617404532
| 32>  C -0.64586232464837 -3.12733757862325 -2.24669339488179
| 33>  C -2.05654900792298 -2.76151266197732 -2.70038691701523
| 34>  C -2.01288510727614 -4.10820104137076 0.77050498067205
| 35>  C -2.04733048964466 -3.60013622402973 2.15973731131122
| 36>  C 0.73082490597452 -4.99280530108652 -1.32153700566687
| 37>  C -2.49510862239312 -2.45722594844023 4.67755196093360
| 38>  C -4.18088635159994 -1.87920468327047 6.34478449424058
| 39>  C -2.84472446683934 -4.24560736373355 3.10311651916202
| 40>  C -1.39578540595975 -2.42395243073883 2.52920635935369
| 41>  C -3.03871701484848 -3.70651273226778 4.35488167345674
| 42>  C -1.61599036840712 -1.86465917679275 3.76670764812784
| 43>  C -2.96451402423144 -2.22072706481696 -1.61502330818181
| 44>  C -5.18290547771566 -1.93307920886972 5.21239885881039
| 45>  C -5.45240303358946 -1.86224573143454 2.95435090280837
| 46>  C -6.45916951359510 -2.51165666122668 5.32570674830572
| 47>  C -6.63870724196858 -2.63342189822317 3.06458419381386
| 48>  C -4.89073578644581 -1.60929713446554 1.63532955151393
| 49>  C -6.68390425925365 -3.01827518595941 0.83617211380168
| 50>  H -1.40741400545516 -5.02590467609684 -1.51229220869466
| 51>  H -0.17300698561631 -2.26428931960826 -1.77596038526573
| 52>  H -0.06881929949939 -3.40700810588532 -3.12950903407176
| 53>  H -2.55633151866953 -3.62322585999016 -3.14544297408012
| 54>  H -1.99424236007974 -1.98179387799815 -3.46530280939427
| 55>  H -0.03800340148609 -3.56247561200352 0.61372915201432
| 56>  H -4.36818917590862 -1.01993418666074 6.99342258727291
| 57>  H -4.30528649965416 -2.78351544770756 6.95275737496423
| 58>  H -3.32983274128910 -5.17069683475078 2.82777731798738
| 59>  H -0.77981665609587 -1.89557221051761 1.81733244077435
| 60>  H -2.46056879225150 -0.85326013990432 5.84759185496495
| 61>  H -3.67266998607829 -4.21895480214761 5.06302300541175
| 62>  H -1.15887619824363 -0.91786972014858 4.01584270567219
| 63>  H -6.90772135868398 -2.70854522099817 6.29145308689774
| 64>  H 1.77649700022021 -6.07254677819631 -2.49471401900445
| 65>  H -5.14173917852177 -2.22460324190622 -0.30828080162520
| 66>  H -2.95874496332590 -1.23911885817511 0.07322109034257
| 67>  H -6.66651650962967 -3.62578412599142 -1.10128735589665
| 68>  H -7.94814293838318 -4.25743898492970 -0.11696837078751
| 69> *
| 70> 
| 71> 
| 72> 
| 73> 
| 74>                          ****END OF INPUT****
================================================================================

                       *****************************
                       * Geometry Optimization Run *
                       *****************************

Geometry optimization settings:
Update method            Update   .... BFGS
Choice of coordinates    CoordSys .... (2022) Redundant Internals
Initial Hessian          InHess   .... Almloef's Model
Max. no of cycles        MaxIter  .... 3000

Convergence Tolerances:
Energy Change            TolE     ....  1.0000e-06 Eh
Max. Gradient            TolMAXG  ....  1.0000e-04 Eh/bohr
RMS Gradient             TolRMSG  ....  3.0000e-05 Eh/bohr
Max. Displacement        TolMAXD  ....  4.0000e-03 bohr
RMS Displacement         TolRMSD  ....  2.0000e-03 bohr
Strict Convergence                .... False

------------------------------------------------------------------------------
                        ORCA OPTIMIZATION COORDINATE SETUP
------------------------------------------------------------------------------

The optimization will be done in redundant internal coordinates (2022)
Making redundant internal coordinates   ...  (2022 redundants) done
Evaluating the initial hessian          ...  (Almloef) done
Evaluating the coordinates              ...  done
Calculating the B-matrix                .... done
Calculating the G-matrix                .... done
Diagonalizing the G-matrix              .... done
Small eigenvalue found = 1.706e-03
Small eigenvalue found = 5.519e-03
Small eigenvalue found = 8.192e-03
Small eigenvalue found = 1.176e-02
Small eigenvalue found = 1.674e-02
Small eigenvalue found = 2.601e-02
The first mode is                       ....  110
The number of degrees of freedom        ....  147

    -----------------------------------------------------------------
                    Redundant Internal Coordinates


    -----------------------------------------------------------------
         Definition                    Initial Value    Approx d2E/dq
    -----------------------------------------------------------------
      1. B(C  13,N   6)                  1.4378         0.469494   
      2. B(C  14,C  13)                  1.5456         0.352740   
      3. B(C  15,C  14)                  1.5263         0.378637   
      4. B(C  16,N   6)                  1.3578         0.629789   
      5. B(C  16,O   1)                  1.2213         1.040055   
      6. B(C  17,C  16)                  1.4796         0.449523   
      7. B(C  18,O   0)                  1.3339         0.687719   
      8. B(C  18,C  13)                  1.5199         0.387740   
      9. B(C  18,O   2)                  1.2010         1.120443   
     10. B(C  19,N   7)                  1.3868         0.566163   
     11. B(C  20,N   7)                  1.4533         0.443507   
     12. B(C  21,C  17)                  1.3937         0.616333   
     13. B(C  22,C  17)                  1.3944         0.614717   
     14. B(C  23,C  21)                  1.3767         0.656196   
     15. B(C  23,C  19)                  1.4001         0.601989   
     16. B(C  24,C  22)                  1.3758         0.658357   
     17. B(C  24,C  19)                  1.3977         0.607326   
     18. B(C  25,C  15)                  1.5149         0.394911   
     19. B(C  25,O   4)                  1.2174         1.055173   
     20. B(C  25,O   3)                  1.3034         0.769321   
     21. B(C  26,C  20)                  1.5130         0.397614   
     22. B(C  26,N   8)                  1.3178         0.729582   
     23. B(C  27,N   8)                  1.3280         0.702645   
     24. B(C  28,C  26)                  1.4059         0.589435   
     25. B(C  28,N   9)                  1.3096         0.751965   
     26. B(C  29,C  27)                  1.4192         0.561206   
     27. B(C  29,N  11)                  1.3508         0.646364   
     28. B(C  29,N   9)                  1.3419         0.667807   
     29. B(C  30,C  27)                  1.4558         0.490687   
     30. B(C  30,N  10)                  1.3695         0.603280   
     31. B(C  30,O   5)                  1.2263         1.021047   
     32. B(C  31,N  12)                  1.3451         0.660048   
     33. B(C  31,N  11)                  1.3005         0.777374   
     34. B(C  31,N  10)                  1.3666         0.609892   
     35. B(H  32,C  13)                  1.0970         0.351020   
     36. B(H  33,C  14)                  1.0909         0.358929   
     37. B(H  34,C  14)                  1.0911         0.358612   
     38. B(H  35,C  15)                  1.0911         0.358703   
     39. B(H  36,C  15)                  1.0940         0.354785   
     40. B(H  37,O   2)                  2.3738         0.002886   
     41. B(H  37,N   6)                  1.0085         0.435162   
     42. B(H  38,C  20)                  1.0928         0.356446   
     43. B(H  39,C  20)                  1.0968         0.351266   
     44. B(H  40,C  21)                  1.0802         0.373237   
     45. B(H  41,C  22)                  1.0795         0.374231   
     46. B(H  42,N   7)                  1.0113         0.430571   
     47. B(H  43,C  23)                  1.0798         0.373856   
     48. B(H  44,C  24)                  1.0805         0.372920   
     49. B(H  45,C  28)                  1.0829         0.369643   
     50. B(H  46,O   0)                  0.9710         0.499316   
     51. B(H  47,O   4)                  1.6872         0.035950   
     52. B(H  47,N  10)                  1.0378         0.390634   
     53. B(H  48,O   4)                  2.4145         0.002486   
     54. B(H  48,O   5)                  1.6286         0.044596   
     55. B(H  48,O   3)                  1.0143         0.426002   
     56. B(H  49,O   1)                  4.0608         0.000006   
     57. B(H  49,N  12)                  1.0067         0.438046   
     58. B(H  50,N  12)                  1.0051         0.440577   
     59. A(C  18,O   0,H  46)          110.6486         0.374163   
     60. A(C  25,O   3,H  48)          114.2601         0.371167   
     61. A(C  13,N   6,H  37)          116.0802         0.342544   
     62. A(C  13,N   6,C  16)          123.0870         0.408840   
     63. A(C  16,N   6,H  37)          119.8196         0.359973   
     64. A(C  19,N   7,H  42)          110.8146         0.352885   
     65. A(C  20,N   7,H  42)          112.4886         0.338697   
     66. A(C  19,N   7,C  20)          118.4498         0.397224   
     67. A(C  26,N   8,C  27)          118.6125         0.451263   
     68. A(C  28,N   9,C  29)          117.8918         0.449575   
     69. A(C  31,N  10,H  47)          118.9565         0.351518   
     70. A(C  30,N  10,H  47)          116.4559         0.350871   
     71. A(C  30,N  10,C  31)          124.0558         0.425064   
     72. A(C  29,N  11,C  31)          117.0917         0.449623   
     73. A(C  31,N  12,H  50)          116.8905         0.363634   
     74. A(H  49,N  12,H  50)          119.1880         0.304731   
     75. A(C  31,N  12,H  49)          118.7024         0.363276   
     76. A(C  14,C  13,H  32)          109.4945         0.319943   
     77. A(C  18,C  13,H  32)          109.1937         0.324942   
     78. A(N   6,C  13,C  14)          112.4566         0.371841   
     79. A(C  14,C  13,C  18)          109.0335         0.362102   
     80. A(N   6,C  13,C  18)          108.6404         0.377963   
     81. A(N   6,C  13,H  32)          107.9697         0.333356   
     82. A(C  15,C  14,H  34)          108.0421         0.324816   
     83. A(H  33,C  14,H  34)          108.8249         0.290502   
     84. A(C  13,C  14,H  33)          108.5442         0.321111   
     85. A(C  13,C  14,C  15)          112.8678         0.360637   
     86. A(C  13,C  14,H  34)          108.6530         0.321065   
     87. A(C  15,C  14,H  33)          109.8320         0.324863   
     88. A(H  35,C  15,H  36)          107.6843         0.289984   
     89. A(C  14,C  15,H  36)          109.0262         0.324244   
     90. A(C  14,C  15,C  25)          115.2485         0.367670   
     91. A(C  25,C  15,H  36)          106.2986         0.326495   
     92. A(C  25,C  15,H  35)          107.4365         0.327086   
     93. A(C  14,C  15,H  35)          110.8130         0.324829   
     94. A(N   6,C  16,C  17)          114.9048         0.408336   
     95. A(O   1,C  16,C  17)          123.1035         0.446732   
     96. A(O   1,C  16,N   6)          121.9328         0.471926   
     97. A(C  21,C  17,C  22)          118.5959         0.432936   
     98. A(C  16,C  17,C  22)          121.8387         0.409225   
     99. A(C  16,C  17,C  21)          119.3290         0.409415   
    100. A(O   0,C  18,O   2)          123.2013         0.486268   
    101. A(O   2,C  18,C  13)          124.4952         0.440838   
    102. A(O   0,C  18,C  13)          112.2904         0.404039   
    103. A(C  23,C  19,C  24)          118.1836         0.430173   
    104. A(N   7,C  19,C  24)          119.8760         0.422699   
    105. A(N   7,C  19,C  23)          121.9379         0.422033   
    106. A(N   7,C  20,H  38)          108.5451         0.331066   
    107. A(N   7,C  20,C  26)          111.9216         0.375891   
    108. A(H  38,C  20,H  39)          107.4495         0.289245   
    109. A(C  26,C  20,H  39)          108.0835         0.326326   
    110. A(N   7,C  20,H  39)          109.7168         0.330265   
    111. A(C  26,C  20,H  38)          111.0221         0.327114   
    112. A(C  17,C  21,H  40)          118.7516         0.354701   
    113. A(C  23,C  21,H  40)          120.2540         0.358497   
    114. A(C  17,C  21,C  23)          120.9800         0.438057   
    115. A(C  17,C  22,C  24)          120.4279         0.438110   
    116. A(C  24,C  22,H  41)          119.0461         0.358860   
    117. A(C  17,C  22,H  41)          120.3139         0.354703   
    118. A(C  21,C  23,H  43)          119.5516         0.358598   
    119. A(C  19,C  23,H  43)          120.0171         0.353388   
    120. A(C  19,C  23,C  21)          120.2817         0.436202   
    121. A(C  19,C  24,C  22)          120.9638         0.437155   
    122. A(C  22,C  24,H  44)          119.7307         0.358646   
    123. A(C  19,C  24,H  44)          119.1653         0.353766   
    124. A(O   4,C  25,C  15)          120.7035         0.437534   
    125. A(O   3,C  25,C  15)          114.6825         0.413480   
    126. A(O   3,C  25,O   4)          124.5276         0.490981   
    127. A(C  20,C  26,C  28)          123.7484         0.397507   
    128. A(N   8,C  26,C  28)          119.6402         0.440029   
    129. A(N   8,C  26,C  20)          116.2024         0.410103   
    130. A(C  29,C  27,C  30)          119.1628         0.408975   
    131. A(N   8,C  27,C  30)          119.2808         0.422903   
    132. A(N   8,C  27,C  29)          120.8480         0.433208   
    133. A(C  26,C  28,H  45)          121.5164         0.351455   
    134. A(N   9,C  28,H  45)          116.2297         0.364046   
    135. A(N   9,C  28,C  26)          122.2526         0.442438   
    136. A(N  11,C  29,C  27)          122.6531         0.426764   
    137. A(N   9,C  29,C  27)          119.2112         0.429269   
    138. A(N   9,C  29,N  11)          118.1167         0.437434   
    139. A(N  10,C  30,C  27)          112.8898         0.411577   
    140. A(O   5,C  30,C  27)          126.5593         0.452377   
    141. A(O   5,C  30,N  10)          120.4885         0.466638   
    142. A(N  11,C  31,N  12)          119.9704         0.451337   
    143. A(N  10,C  31,N  12)          116.0340         0.431975   
    144. A(N  10,C  31,N  11)          123.9489         0.444914   
    145. D(C  14,C  13,N   6,H  37)    -84.9347         0.018832   
    146. D(C  18,C  13,N   6,C  16)   -132.5888         0.018832   
    147. D(C  18,C  13,N   6,H  37)     35.8517         0.018832   
    148. D(H  32,C  13,N   6,C  16)    -14.2840         0.018832   
    149. D(C  14,C  13,N   6,C  16)    106.6248         0.018832   
    150. D(C  15,C  14,C  13,N   6)    -84.2950         0.010012   
    151. D(C  15,C  14,C  13,H  32)     35.7349         0.010012   
    152. D(H  33,C  14,C  13,C  18)    -82.8602         0.010012   
    153. D(C  15,C  14,C  13,C  18)    155.1446         0.010012   
    154. D(H  33,C  14,C  13,N   6)     37.7001         0.010012   
    155. D(H  33,C  14,C  13,H  32)    157.7300         0.010012   
    156. D(H  35,C  15,C  14,C  13)    -56.9286         0.011431   
    157. D(C  25,C  15,C  14,H  34)   -174.5113         0.011431   
    158. D(C  25,C  15,C  14,H  33)    -55.9409         0.011431   
    159. D(C  25,C  15,C  14,C  13)     65.3266         0.011431   
    160. D(H  35,C  15,C  14,H  34)     63.2335         0.011431   
    161. D(H  35,C  15,C  14,H  33)   -178.1961         0.011431   
    162. D(C  17,C  16,N   6,H  37)     11.6621         0.032198   
    163. D(C  17,C  16,N   6,C  13)    179.6892         0.032198   
    164. D(O   1,C  16,N   6,H  37)   -171.0485         0.032198   
    165. D(O   1,C  16,N   6,C  13)     -3.0215         0.032198   
    166. D(C  22,C  17,C  16,N   6)     34.6879         0.013775   
    167. D(C  22,C  17,C  16,O   1)   -142.5659         0.013775   
    168. D(C  21,C  17,C  16,N   6)   -150.9787         0.013775   
    169. D(C  21,C  17,C  16,O   1)     31.7676         0.013775   
    170. D(O   0,C  18,C  13,H  32)     49.7265         0.011192   
    171. D(O   0,C  18,C  13,C  14)    -69.8699         0.011192   
    172. D(O   0,C  18,C  13,N   6)    167.2547         0.011192   
    173. D(C  13,C  18,O   0,H  46)    179.3877         0.035300   
    174. D(O   2,C  18,C  13,N   6)    -14.0296         0.011192   
    175. D(O   2,C  18,O   0,H  46)      0.6526         0.035300   
    176. D(O   2,C  18,C  13,C  14)    108.8459         0.011192   
    177. D(C  24,C  19,N   7,H  42)      9.2371         0.025632   
    178. D(C  24,C  19,N   7,C  20)    141.4114         0.025632   
    179. D(C  23,C  19,N   7,H  42)   -170.1805         0.025632   
    180. D(C  23,C  19,N   7,C  20)    -38.0062         0.025632   
    181. D(H  39,C  20,N   7,C  19)     86.2852         0.016775   
    182. D(H  38,C  20,N   7,H  42)    -25.1406         0.016775   
    183. D(H  38,C  20,N   7,C  19)   -156.5717         0.016775   
    184. D(C  26,C  20,N   7,H  42)     97.7388         0.016775   
    185. D(C  26,C  20,N   7,C  19)    -33.6923         0.016775   
    186. D(H  40,C  21,C  17,C  22)   -178.4131         0.026267   
    187. D(H  40,C  21,C  17,C  16)      7.0690         0.026267   
    188. D(C  23,C  21,C  17,C  22)      2.9635         0.026267   
    189. D(C  23,C  21,C  17,C  16)   -171.5543         0.026267   
    190. D(H  41,C  22,C  17,C  21)   -179.3391         0.026121   
    191. D(H  41,C  22,C  17,C  16)     -4.9655         0.026121   
    192. D(C  24,C  22,C  17,C  21)     -4.6813         0.026121   
    193. D(C  24,C  22,C  17,C  16)    169.6923         0.026121   
    194. D(H  43,C  23,C  21,H  40)      0.5133         0.030021   
    195. D(H  43,C  23,C  21,C  17)    179.1161         0.030021   
    196. D(C  19,C  23,C  21,H  40)   -175.0413         0.030021   
    197. D(C  19,C  23,C  21,C  17)      3.5615         0.030021   
    198. D(H  43,C  23,C  19,C  24)    176.2272         0.024991   
    199. D(H  43,C  23,C  19,N   7)     -4.3458         0.024991   
    200. D(C  21,C  23,C  19,C  24)     -8.2390         0.024991   
    201. D(C  21,C  23,C  19,N   7)    171.1881         0.024991   
    202. D(C  19,C  24,C  22,C  17)     -0.1186         0.030234   
    203. D(H  44,C  24,C  19,C  23)   -177.7620         0.025461   
    204. D(H  44,C  24,C  19,N   7)      2.7987         0.025461   
    205. D(C  22,C  24,C  19,C  23)      6.5528         0.025461   
    206. D(C  19,C  24,C  22,H  41)    174.6063         0.030234   
    207. D(C  22,C  24,C  19,N   7)   -172.8865         0.025461   
    208. D(H  44,C  24,C  22,H  41)     -1.0547         0.030234   
    209. D(H  44,C  24,C  22,C  17)   -175.7796         0.030234   
    210. D(O   4,C  25,C  15,H  35)    -27.4292         0.011588   
    211. D(O   4,C  25,C  15,C  14)   -151.4773         0.011588   
    212. D(O   3,C  25,C  15,H  36)    -89.1388         0.011588   
    213. D(O   3,C  25,C  15,H  35)    155.8010         0.011588   
    214. D(O   3,C  25,C  15,C  14)     31.7529         0.011588   
    215. D(C  15,C  25,O   3,H  48)   -176.0842         0.045204   
    216. D(O   4,C  25,O   3,H  48)      7.2872         0.045204   
    217. D(C  28,C  26,C  20,N   7)    154.3883         0.011739   
    218. D(N   8,C  26,C  20,H  39)   -139.1539         0.011739   
    219. D(N   8,C  26,C  20,H  38)    103.2376         0.011739   
    220. D(N   8,C  26,C  20,N   7)    -18.2252         0.011739   
    221. D(C  28,C  26,N   8,C  27)     -9.3798         0.040192   
    222. D(C  28,C  26,C  20,H  38)    -84.1488         0.011739   
    223. D(C  20,C  26,N   8,C  27)    163.5555         0.040192   
    224. D(C  30,C  27,N   8,C  26)   -170.8034         0.036999   
    225. D(C  29,C  27,N   8,C  26)     -0.5271         0.036999   
    226. D(H  45,C  28,C  26,C  20)     17.2144         0.023907   
    227. D(H  45,C  28,C  26,N   8)   -170.4122         0.023907   
    228. D(N   9,C  28,C  26,C  20)   -162.3636         0.023907   
    229. D(N   9,C  28,C  26,N   8)     10.0098         0.023907   
    230. D(H  45,C  28,N   9,C  29)   -179.3296         0.042970   
    231. D(C  26,C  28,N   9,C  29)      0.2693         0.042970   
    232. D(N  11,C  29,C  27,N   8)   -167.6600         0.021577   
    233. D(N   9,C  29,C  27,C  30)   -178.9887         0.021577   
    234. D(N   9,C  29,C  27,N   8)     10.7238         0.021577   
    235. D(C  27,C  29,N  11,C  31)      1.3776         0.030848   
    236. D(N   9,C  29,N  11,C  31)   -177.0230         0.030848   
    237. D(C  27,C  29,N   9,C  28)    -10.1389         0.033110   
    238. D(N  11,C  29,C  27,C  30)      2.6275         0.021577   
    239. D(N  11,C  29,N   9,C  28)    168.3182         0.033110   
    240. D(N  10,C  30,C  27,N   8)    166.9236         0.016395   
    241. D(O   5,C  30,C  27,C  29)    179.3669         0.016395   
    242. D(O   5,C  30,C  27,N   8)    -10.1916         0.016395   
    243. D(C  27,C  30,N  10,H  47)   -170.6998         0.029349   
    244. D(C  27,C  30,N  10,C  31)      0.8249         0.029349   
    245. D(O   5,C  30,N  10,H  47)      6.6113         0.029349   
    246. D(N  10,C  30,C  27,C  29)     -3.5180         0.016395   
    247. D(O   5,C  30,N  10,C  31)    178.1360         0.029349   
    248. D(N  11,C  31,N  12,H  50)    -11.1500         0.035651   
    249. D(N  11,C  31,N  12,H  49)   -165.4490         0.035651   
    250. D(N  10,C  31,N  12,H  50)    171.2368         0.035651   
    251. D(N  10,C  31,N  12,H  49)     16.9378         0.035651   
    252. D(N  12,C  31,N  11,C  29)    178.1857         0.046265   
    253. D(N  10,C  31,N  11,C  29)     -4.3997         0.046265   
    254. D(N  12,C  31,N  10,H  47)     -7.7972         0.030044   
    255. D(N  12,C  31,N  10,C  30)   -179.1238         0.030044   
    256. D(N  11,C  31,N  10,H  47)    174.6953         0.030044   
    257. D(N  11,C  31,N  10,C  30)      3.3687         0.030044   
    -----------------------------------------------------------------

Number of atoms                         .... 51
Number of degrees of freedom            .... 257


         *************************************************************
         *                GEOMETRY OPTIMIZATION CYCLE   1            *
         *************************************************************
---------------------------------
CARTESIAN COORDINATES (ANGSTROEM)
---------------------------------
  O      0.901767   -5.651764   -2.468615
  O     -2.969016   -4.644948    0.232691
  O      1.569785   -4.936754   -0.463959
  O     -2.354905   -1.544703   -0.682227
  O     -4.170402   -2.374333   -1.679726
  O     -3.884118   -0.955915    1.383086
  N     -0.849631   -3.882035    0.107631
  N     -2.814260   -1.800700    5.856704
  N     -4.750049   -1.535295    4.032998
  N     -7.168612   -2.849976    4.278232
  N     -5.577076   -2.242746    0.633672
  N     -7.247288   -3.191300    1.995491
  N     -7.220670   -3.579269   -0.262169
  C     -0.623093   -4.306215   -1.247356
  C     -0.645862   -3.127338   -2.246693
  C     -2.056549   -2.761513   -2.700387
  C     -2.012885   -4.108201    0.770505
  C     -2.047330   -3.600136    2.159737
  C      0.730825   -4.992805   -1.321537
  C     -2.495109   -2.457226    4.677552
  C     -4.180886   -1.879205    6.344784
  C     -2.844724   -4.245607    3.103117
  C     -1.395785   -2.423952    2.529206
  C     -3.038717   -3.706513    4.354882
  C     -1.615990   -1.864659    3.766708
  C     -2.964514   -2.220727   -1.615023
  C     -5.182905   -1.933079    5.212399
  C     -5.452403   -1.862246    2.954351
  C     -6.459170   -2.511657    5.325707
  C     -6.638707   -2.633422    3.064584
  C     -4.890736   -1.609297    1.635330
  C     -6.683904   -3.018275    0.836172
  H     -1.407414   -5.025905   -1.512292
  H     -0.173007   -2.264289   -1.775960
  H     -0.068819   -3.407008   -3.129509
  H     -2.556332   -3.623226   -3.145443
  H     -1.994242   -1.981794   -3.465303
  H     -0.038003   -3.562476    0.613729
  H     -4.368189   -1.019934    6.993423
  H     -4.305286   -2.783515    6.952757
  H     -3.329833   -5.170697    2.827777
  H     -0.779817   -1.895572    1.817332
  H     -2.460569   -0.853260    5.847592
  H     -3.672670   -4.218955    5.063023
  H     -1.158876   -0.917870    4.015843
  H     -6.907721   -2.708545    6.291453
  H      1.776497   -6.072547   -2.494714
  H     -5.141739   -2.224603   -0.308281
  H     -2.958745   -1.239119    0.073221
  H     -6.666517   -3.625784   -1.101287
  H     -7.948143   -4.257439   -0.116968

----------------------------
CARTESIAN COORDINATES (A.U.)
----------------------------
  NO LB      ZA    FRAG     MASS         X           Y           Z
   0 O     8.0000    0    15.999    1.704093  -10.680286   -4.665007
   1 O     8.0000    0    15.999   -5.610626   -8.777679    0.439722
   2 O     8.0000    0    15.999    2.966464   -9.329112   -0.876756
   3 O     8.0000    0    15.999   -4.450125   -2.919066   -1.289221
   4 O     8.0000    0    15.999   -7.880918   -4.486839   -3.174222
   5 O     8.0000    0    15.999   -7.339919   -1.806417    2.613653
   6 N     7.0000    0    14.007   -1.605571   -7.335984    0.203394
   7 N     7.0000    0    14.007   -5.318181   -3.402830   11.067567
   8 N     7.0000    0    14.007   -8.976291   -2.901287    7.621262
   9 N     7.0000    0    14.007  -13.546714   -5.385674    8.084687
  10 N     7.0000    0    14.007  -10.539147   -4.238176    1.197467
  11 N     7.0000    0    14.007  -13.695390   -6.030683    3.770932
  12 N     7.0000    0    14.007  -13.645088   -6.763839   -0.495428
  13 C     6.0000    0    12.011   -1.177474   -8.137567   -2.357162
  14 C     6.0000    0    12.011   -1.220503   -5.909812   -4.245635
  15 C     6.0000    0    12.011   -3.886314   -5.218503   -5.102992
  16 C     6.0000    0    12.011   -3.803802   -7.763375    1.456043
  17 C     6.0000    0    12.011   -3.868894   -6.803272    4.081312
  18 C     6.0000    0    12.011    1.381059   -9.435035   -2.497343
  19 C     6.0000    0    12.011   -4.715072   -4.643484    8.839292
  20 C     6.0000    0    12.011   -7.900730   -3.551182   11.989905
  21 C     6.0000    0    12.011   -5.375750   -8.023035    5.864040
  22 C     6.0000    0    12.011   -2.637652   -4.580606    4.779507
  23 C     6.0000    0    12.011   -5.742343   -7.004294    8.229534
  24 C     6.0000    0    12.011   -3.053779   -3.523695    7.118046
  25 C     6.0000    0    12.011   -5.602120   -4.196566   -3.051952
  26 C     6.0000    0    12.011   -9.794272   -3.652990    9.850006
  27 C     6.0000    0    12.011  -10.303549   -3.519134    5.582914
  28 C     6.0000    0    12.011  -12.206061   -4.746343   10.064127
  29 C     6.0000    0    12.011  -12.545339   -4.976446    5.791225
  30 C     6.0000    0    12.011   -9.242151   -3.041131    3.090325
  31 C     6.0000    0    12.011  -12.630749   -5.703713    1.580136
  32 H     1.0000    0     1.008   -2.659627   -9.497583   -2.857818
  33 H     1.0000    0     1.008   -0.326936   -4.278887   -3.356079
  34 H     1.0000    0     1.008   -0.130050   -6.438312   -5.913915
  35 H     1.0000    0     1.008   -4.830766   -6.846905   -5.944026
  36 H     1.0000    0     1.008   -3.768572   -3.745048   -6.548473
  37 H     1.0000    0     1.008   -0.071816   -6.732103    1.159780
  38 H     1.0000    0     1.008   -8.254681   -1.927396   13.215653
  39 H     1.0000    0     1.008   -8.135812   -5.260082   13.138807
  40 H     1.0000    0     1.008   -6.292472   -9.771201    5.343725
  41 H     1.0000    0     1.008   -1.473640   -3.582112    3.434261
  42 H     1.0000    0     1.008   -4.649801   -1.612428   11.050347
  43 H     1.0000    0     1.008   -6.940340   -7.972669    9.567727
  44 H     1.0000    0     1.008   -2.189959   -1.734522    7.588843
  45 H     1.0000    0     1.008  -13.053702   -5.118409   11.889123
  46 H     1.0000    0     1.008    3.357093  -11.475450   -4.714326
  47 H     1.0000    0     1.008   -9.716479   -4.203891   -0.582566
  48 H     1.0000    0     1.008   -5.591218   -2.341595    0.138368
  49 H     1.0000    0     1.008  -12.597890   -6.851739   -2.081131
  50 H     1.0000    0     1.008  -15.019813   -8.045394   -0.221038

--------------------------------
INTERNAL COORDINATES (ANGSTROEM)
--------------------------------
 O      0   0   0     0.000000000000     0.00000000     0.00000000
 O      1   0   0     4.826353762522     0.00000000     0.00000000
 O      1   2   0     2.230725009248    70.75122244     0.00000000
 O      2   1   3     3.290246391498    83.75584050    81.18125753
 O      4   2   1     2.231439159901    67.79797101   107.95098090
 O      4   2   1     2.636414020734    83.35816401   198.26299673
 N      2   1   3     2.255984163416    44.44450239    29.51763007
 N      6   4   2     4.676699337920   125.19279367    66.25614180
 N      8   6   4     2.672754941657    33.24590960   209.54948016
 N      9   8   6     2.763688795492   121.73818175   151.70774552
 N      6   4   2     2.254698133846    92.73313709   305.77217626
 N     10   9   8     2.309458188132    90.71106289   217.13953620
 N     12  10   9     2.290908072057   177.10037816    54.39518843
 C      7   2   1     1.437789943545    95.76759844    22.50269660
 C     14   7   2     1.545621442506   112.45663692   105.23008552
 C     15  14   7     1.526336332540   112.86782406   275.70500136
 C      2   1   3     1.221280815618    73.15818805    16.45939974
 C     17   2   1     1.479622523308   123.10347346   195.10765396
 C      3   1   2     1.201014514249    30.02267814   337.46058819
 C      8   6   4     1.386824865829    47.53248887   328.89545680
 C      8   6   4     1.453290093294    96.65540886   205.98057351
 C     18  17   2     1.393712479984   119.32897272    31.76757311
 C     18  17   2     1.394427011046   121.83871253   217.43408881
 C     22  18  17     1.376652509483   120.98000033   188.44565128
 C     23  18  17     1.375757467402   120.42787218   169.69226700
 C      5   4   2     1.217352427454    28.76400664   275.44100411
 C      9   8   6     1.317794979370    66.24993888   173.59611286
 C      9   8   6     1.328035471310   155.89419445    66.28185598
 C     10   9   8     1.309569364553    58.26410831    28.47808259
 C     10   9   8     1.341877921161    59.82734249   213.72105317
 C      6   4   2     1.226301523746   121.21638583   320.18555335
 C     12  10   9     1.300523085666   147.85370190   359.25002501
 H     14   7   2     1.096952253449   107.96967458   344.32131316
 H     15  14   7     1.090886811444   108.54421098    37.70012060
 H     15  14   7     1.091126807246   108.65302849   155.89396005
 H     16  15  14     1.091057783808   110.81296634   303.07136397
 H     16  15  14     1.094047450008   109.02618814   184.72247081
 H      7   2   1     1.008460854013   146.66028805   219.26551201
 H     21   8   6     1.092776056688   108.54512398   248.20179937
 H     21   8   6     1.096760857803   109.71682033   131.05868244
 H     22  18  17     1.080246380707   118.75163544     7.06901626
 H     23  18  17     1.079521946921   120.31390983   355.03450907
 H      8   6   4     1.011347412815    84.38534975    93.92662872
 H     24  22  18     1.079795068861   119.55161131   179.11606389
 H     25  23  18     1.080477633584   119.73071566   184.22038811
 H     29  10   9     1.082880350364   116.22968704   175.54234534
 H      1   2   3     0.971026149740   145.88525181    44.19218079
 H     11   6   4     1.037845146147    88.66686906   341.92042265
 H      4   2   1     1.014251545306    88.03184889   196.31416487
 H     13  12  32     1.006662236756   146.68764601    23.65671718
 H     13  12  32     1.005094399602    87.90762163   170.06194226

---------------------------
INTERNAL COORDINATES (A.U.)
---------------------------
 O      0   0   0     0.000000000000     0.00000000     0.00000000
 O      1   0   0     9.120486836587     0.00000000     0.00000000
 O      1   2   0     4.215459347568    70.75122244     0.00000000
 O      2   1   3     6.217664593053    83.75584050    81.18125753
 O      4   2   1     4.216808896720    67.79797101   107.95098090
 O      4   2   1     4.982100474817    83.35816401   198.26299673
 N      2   1   3     4.263192231319    44.44450239    29.51763007
 N      6   4   2     8.837680959359   125.19279367    66.25614180
 N      8   6   4     5.050774862816    33.24590960   209.54948016
 N      9   8   6     5.222614942867   121.73818175   151.70774552
 N      6   4   2     4.260761987632    92.73313709   305.77217626
 N     10   9   8     4.364243493311    90.71106289   217.13953620
 N     12  10   9     4.329188854177   177.10037816    54.39518843
 C      7   2   1     2.717029231406    95.76759844    22.50269660
 C     14   7   2     2.920801233053   112.45663692   105.23008552
 C     15  14   7     2.884357656755   112.86782406   275.70500136
 C      2   1   3     2.307886274129    73.15818805    16.45939974
 C     17   2   1     2.796081350633   123.10347346   195.10765396
 C      3   1   2     2.269588514796    30.02267814   337.46058819
 C      8   6   4     2.620719192129    47.53248887   328.89545680
 C      8   6   4     2.746320269467    96.65540886   205.98057351
 C     18  17   2     2.633734896597   119.32897272    31.76757311
 C     18  17   2     2.635085164620   121.83871253   217.43408881
 C     22  18  17     2.601496224498   120.98000033   188.44565128
 C     23  18  17     2.599804840088   120.42787218   169.69226700
 C      5   4   2     2.300462696353    28.76400664   275.44100411
 C      9   8   6     2.490271611665    66.24993888   173.59611286
 C      9   8   6     2.509623336908   155.89419445    66.28185598
 C     10   9   8     2.474727452378    58.26410831    28.47808259
 C     10   9   8     2.535781776149    59.82734249   213.72105317
 C      6   4   2     2.317374037491   121.21638583   320.18555335
 C     12  10   9     2.457632462752   147.85370190   359.25002501
 H     14   7   2     2.072939341006   107.96967458   344.32131316
 H     15  14   7     2.061477316735   108.54421098    37.70012060
 H     15  14   7     2.061930843075   108.65302849   155.89396005
 H     16  15  14     2.061800407680   110.81296634   303.07136397
 H     16  15  14     2.067450058030   109.02618814   184.72247081
 H      7   2   1     1.905714830865   146.66028805   219.26551201
 H     21   8   6     2.065047472847   108.54512398   248.20179937
 H     21   8   6     2.072577655652   109.71682033   131.05868244
 H     22  18  17     2.041369816695   118.75163544     7.06901626
 H     23  18  17     2.040000835238   120.31390983   355.03450907
 H      8   6   4     1.911169636469    84.38534975    93.92662872
 H     24  22  18     2.040516960906   119.55161131   179.11606389
 H     25  23  18     2.041806821300   119.73071566   184.22038811
 H     29  10   9     2.046347297993   116.22968704   175.54234534
 H      1   2   3     1.834973491885   145.88525181    44.19218079
 H     11   6   4     1.961243095638    88.66686906   341.92042265
 H      4   2   1     1.916657651536    88.03184889   196.31416487
 H     13  12  32     1.902315936829   146.68764601    23.65671718
 H     13  12  32     1.899353153986    87.90762163   170.06194226

---------------------
BASIS SET INFORMATION
---------------------
There are 4 groups of distinct atoms

 Group   1 Type O   : 11s6p2d contracted to 5s3p2d pattern {62111/411/11}
 Group   2 Type N   : 11s6p1d contracted to 5s3p1d pattern {62111/411/1}
 Group   3 Type C   : 11s6p1d contracted to 5s3p1d pattern {62111/411/1}
 Group   4 Type H   : 5s contracted to 3s pattern {311}

Atom   0O    basis set group =>   1
Atom   1O    basis set group =>   1
Atom   2O    basis set group =>   1
Atom   3O    basis set group =>   1
Atom   4O    basis set group =>   1
Atom   5O    basis set group =>   1
Atom   6N    basis set group =>   2
Atom   7N    basis set group =>   2
Atom   8N    basis set group =>   2
Atom   9N    basis set group =>   2
Atom  10N    basis set group =>   2
Atom  11N    basis set group =>   2
Atom  12N    basis set group =>   2
Atom  13C    basis set group =>   3
Atom  14C    basis set group =>   3
Atom  15C    basis set group =>   3
Atom  16C    basis set group =>   3
Atom  17C    basis set group =>   3
Atom  18C    basis set group =>   3
Atom  19C    basis set group =>   3
Atom  20C    basis set group =>   3
Atom  21C    basis set group =>   3
Atom  22C    basis set group =>   3
Atom  23C    basis set group =>   3
Atom  24C    basis set group =>   3
Atom  25C    basis set group =>   3
Atom  26C    basis set group =>   3
Atom  27C    basis set group =>   3
Atom  28C    basis set group =>   3
Atom  29C    basis set group =>   3
Atom  30C    basis set group =>   3
Atom  31C    basis set group =>   3
Atom  32H    basis set group =>   4
Atom  33H    basis set group =>   4
Atom  34H    basis set group =>   4
Atom  35H    basis set group =>   4
Atom  36H    basis set group =>   4
Atom  37H    basis set group =>   4
Atom  38H    basis set group =>   4
Atom  39H    basis set group =>   4
Atom  40H    basis set group =>   4
Atom  41H    basis set group =>   4
Atom  42H    basis set group =>   4
Atom  43H    basis set group =>   4
Atom  44H    basis set group =>   4
Atom  45H    basis set group =>   4
Atom  46H    basis set group =>   4
Atom  47H    basis set group =>   4
Atom  48H    basis set group =>   4
Atom  49H    basis set group =>   4
Atom  50H    basis set group =>   4
---------------------------------
AUXILIARY/J BASIS SET INFORMATION
---------------------------------
There are 4 groups of distinct atoms

 Group   1 Type O   : 8s3p3d contracted to 6s3p3d pattern {311111/111/111}
 Group   2 Type N   : 8s3p3d contracted to 6s3p3d pattern {311111/111/111}
 Group   3 Type C   : 8s3p3d contracted to 6s3p3d pattern {311111/111/111}
 Group   4 Type H   : 5s2p contracted to 3s1p pattern {311/2}

Atom   0O    basis set group =>   1
Atom   1O    basis set group =>   1
Atom   2O    basis set group =>   1
Atom   3O    basis set group =>   1
Atom   4O    basis set group =>   1
Atom   5O    basis set group =>   1
Atom   6N    basis set group =>   2
Atom   7N    basis set group =>   2
Atom   8N    basis set group =>   2
Atom   9N    basis set group =>   2
Atom  10N    basis set group =>   2
Atom  11N    basis set group =>   2
Atom  12N    basis set group =>   2
Atom  13C    basis set group =>   3
Atom  14C    basis set group =>   3
Atom  15C    basis set group =>   3
Atom  16C    basis set group =>   3
Atom  17C    basis set group =>   3
Atom  18C    basis set group =>   3
Atom  19C    basis set group =>   3
Atom  20C    basis set group =>   3
Atom  21C    basis set group =>   3
Atom  22C    basis set group =>   3
Atom  23C    basis set group =>   3
Atom  24C    basis set group =>   3
Atom  25C    basis set group =>   3
Atom  26C    basis set group =>   3
Atom  27C    basis set group =>   3
Atom  28C    basis set group =>   3
Atom  29C    basis set group =>   3
Atom  30C    basis set group =>   3
Atom  31C    basis set group =>   3
Atom  32H    basis set group =>   4
Atom  33H    basis set group =>   4
Atom  34H    basis set group =>   4
Atom  35H    basis set group =>   4
Atom  36H    basis set group =>   4
Atom  37H    basis set group =>   4
Atom  38H    basis set group =>   4
Atom  39H    basis set group =>   4
Atom  40H    basis set group =>   4
Atom  41H    basis set group =>   4
Atom  42H    basis set group =>   4
Atom  43H    basis set group =>   4
Atom  44H    basis set group =>   4
Atom  45H    basis set group =>   4
Atom  46H    basis set group =>   4
Atom  47H    basis set group =>   4
Atom  48H    basis set group =>   4
Atom  49H    basis set group =>   4
Atom  50H    basis set group =>   4


           ************************************************************
           *        Program running with 16 parallel MPI-processes    *
           *              working on a common directory               *
           ************************************************************
------------------------------------------------------------------------------
                             ORCA STARTUP CALCULATIONS
                           -- RI-GTO INTEGRALS CHOSEN --
------------------------------------------------------------------------------
------------------------------------------------------------------------------
                   ___                                                        
                  /   \      - P O W E R E D   B Y -                         
                 /     \                                                     
                 |  |  |   _    _      __       _____    __    __             
                 |  |  |  | |  | |    /  \     |  _  \  |  |  /  |          
                  \  \/   | |  | |   /    \    | | | |  |  | /  /          
                 / \  \   | |__| |  /  /\  \   | |_| |  |  |/  /          
                |  |  |   |  __  | /  /__\  \  |    /   |      \           
                |  |  |   | |  | | |   __   |  |    \   |  |\   \          
                \     /   | |  | | |  |  |  |  | |\  \  |  | \   \       
                 \___/    |_|  |_| |__|  |__|  |_| \__\ |__|  \__/        
                                                                              
                      - O R C A' S   B I G   F R I E N D -                    
                                      &                                       
                       - I N T E G R A L  F E E D E R -                       
                                                                              
 v1 FN, 2020, v2 2021, v3 2022-2024                                           
------------------------------------------------------------------------------


----------------------
SHARK INTEGRAL PACKAGE
----------------------

Number of atoms                             ...     51
Number of basis functions                   ...    695
Number of shells                            ...    351
Maximum angular momentum                    ...      2
Integral batch strategy                     ... SHARK/LIBINT Hybrid
RI-J (if used) integral strategy            ... SPLIT-RIJ (Revised 2003 algorithm where possible)
Printlevel                                  ...      1
Contraction scheme used                     ... SEGMENTED contraction
Prescreening option                         ... SCHWARTZ
   Thresh                                   ... 2.500e-11
   Tcut                                     ... 2.500e-12
   Tpresel                                  ... 2.500e-12 
Coulomb Range Separation                    ... NOT USED
Exchange Range Separation                   ... NOT USED
Multipole approximations                    ... NOT USED
Finite Nucleus Model                        ... NOT USED
CABS basis                                  ... NOT available
Auxiliary Coulomb fitting basis             ... AVAILABLE
   # of basis functions in Aux-J            ...   1074
   # of shells in Aux-J                     ...    460
   Maximum angular momentum in Aux-J        ...      2
Auxiliary J/K fitting basis                 ... NOT available
Auxiliary Correlation fitting basis         ... NOT available
Auxiliary 'external' fitting basis          ... NOT available

Checking pre-screening integrals            ... done (  0.0 sec) Dimension = 351
Check shell pair data                       ... done (  0.0 sec)
Shell pair information
Shell pair cut-off parameter TPreSel        ...   2.5e-12
Total number of shell pairs                 ...     61776
Shell pairs after pre-screening             ...     42029
Total number of primitive shell pairs       ...    230264
Primitive shell pairs kept                  ...     94354
          la=0 lb=0:  14718 shell pairs
          la=1 lb=0:  15179 shell pairs
          la=1 lb=1:   3832 shell pairs
          la=2 lb=0:   5100 shell pairs
          la=2 lb=1:   2719 shell pairs
          la=2 lb=2:    481 shell pairs

Calculating one electron integrals          ... done (  0.0 sec)
Calculating RI/J V-Matrix + Cholesky decomp.... done (  0.0 sec)
Calculating Nuclear repulsion               ... done (  0.0 sec) ENN=   3460.477496062194 Eh

Diagonalization of the overlap matrix:
Smallest eigenvalue                        ... 7.724e-06
Time for diagonalization                   ...    0.052 sec
Threshold for overlap eigenvalues          ... 1.000e-07
Number of eigenvalues below threshold      ... 0
Time for construction of square roots      ...    0.031 sec
Total time needed                          ...    0.089 sec

-------------------
DFT GRID GENERATION
-------------------

General Integration Accuracy     IntAcc      ... 4.959
Radial Grid Type                 RadialGrid  ... OptM3 with GC (2021)
Angular Grid (max. ang.)         AngularGrid ... 6 (Lebedev-590)
Angular grid pruning method      GridPruning ... 4 (adaptive)
Weight generation scheme         WeightScheme... mBecke (2022)
Basis function cutoff            BFCut       ... 1.0000e-11
Integration weight cutoff        WCut        ... 1.0000e-14
Partially contracted basis set               ... off
Rotationally invariant grid construction     ... off
Angular grids for H and He will be reduced by one unit
Diffuse basis detected: some atoms will have their outermost
                        angular grid increased by 1.

Total number of grid points                  ...   615100
Total number of batches                      ...     9634
Average number of points per batch           ...       63
Average number of grid points per atom       ...    12061
Initializing property integral containers    ... done (  0.0 sec)

SHARK setup successfully completed in   5.3 seconds

Maximum memory used throughout the entire STARTUP-calculation: 157.4 MB


           ************************************************************
           *        Program running with 16 parallel MPI-processes    *
           *              working on a common directory               *
           ************************************************************
-------------------------------------------------------------------------------
                                 ORCA GUESS
                   Start orbitals & Density for SCF / CASSCF
-------------------------------------------------------------------------------

------------
SCF SETTINGS
------------
Hamiltonian:
 Density Functional     Method          .... DFT(GTOs)
 Exchange Functional    Exchange        .... B973C
 Correlation Functional Correlation     .... B973C
 Gradients option       PostSCFGGA      .... off
 RI-approximation to the Coulomb term is turned on
   Number of AuxJ basis functions       .... 1074


General Settings:
 Integral files         IntName         .... m1_00_Vitamin_B9-GFN2_0004-B97-3C-TZ
 Hartree-Fock type      HFTyp           .... RHF
 Total Charge           Charge          ....    0
 Multiplicity           Mult            ....    1
 Number of Electrons    NEL             ....  230
 Basis Dimension        Dim             ....  695
 Nuclear Repulsion      ENuc            ....   3460.4774960622 Eh

Convergence Acceleration:
 AO-DIIS                CNVDIIS         .... on
   Start iteration      DIISMaxIt       ....    12
   Startup error        DIISStart       ....  0.200000
   # of expansion vecs  DIISMaxEq       ....     5
   Bias factor          DIISBfac        ....   1.050
   Max. coefficient     DIISMaxC        ....  10.000
 MO-DIIS                CNVKDIIS        .... off
 Trust-Rad. Augm. Hess. CNVTRAH         .... off
 SOSCF                  CNVSOSCF        .... on
   Start iteration      SOSCFMaxIt      ....   150
   Startup grad/error   SOSCFStart      ....  0.003300
   Hessian update       SOSCFHessUp     .... L-BFGS
 Level Shifting         CNVShift        .... on
   Level shift para.    LevelShift      ....    0.2500
   Turn off err/grad.   ShiftErr        ....    0.0010
 Zerner damping         CNVZerner       .... off
 Static damping         CNVDamp         .... on
   Fraction old density DampFac         ....    0.7000
   Max. Damping (<1)    DampMax         ....    0.9800
   Min. Damping (>=0)   DampMin         ....    0.0000
   Turn off err/grad.   DampErr         ....    0.1000

SCF Procedure:
 Maximum # iterations   MaxIter         ....   800
 SCF integral mode      SCFMode         .... Direct
   Integral package                     .... SHARK and LIBINT hybrid scheme
 Reset frequency        DirectResetFreq ....    20
 Integral Threshold     Thresh          ....  2.500e-11 Eh
 Primitive CutOff       TCut            ....  2.500e-12 Eh

Convergence Tolerance:
 Convergence Check Mode ConvCheckMode   .... Total+1el-Energy
 Convergence forced     ConvForced      .... 0
 Energy Change          TolE            ....  1.000e-08 Eh
 1-El. energy change                    ....  1.000e-05 Eh
 Orbital Gradient       TolG            ....  1.000e-05
 Orbital Rotation angle TolX            ....  1.000e-05
 DIIS Error             TolErr          ....  5.000e-07

--------------------------------
INITIAL GUESS: MINIMAL BASIS EHT
--------------------------------
The minimal basis has 179 functions
EHT matrix was diagonalized
Basis set overlap was calculated now projecting the orbitals
Using GuessMode=FMatrix for the initial guess
C*T matrix was formed
Effective Fockian was calculated
Effective Fockian was diagonalized
Initial density was built
                      ------------------
                      INITIAL GUESS DONE
                      ------------------
             **** ENERGY FILE WAS UPDATED (m1_00_Vitamin_B9-GFN2_0004-B97-3C-TZ.en.tmp) ****
Finished Guess after   0.5 sec
Maximum memory used throughout the entire GUESS-calculation: 74.0 MB


           ************************************************************
           *        Program running with 16 parallel MPI-processes    *
           *              working on a common directory               *
           ************************************************************

-------------------------------------------------------------------------------------------
                                      ORCA LEAN-SCF
                              memory conserving SCF solver
-------------------------------------------------------------------------------------------

----------------------------------------D-I-I-S--------------------------------------------
Iteration    Energy (Eh)           Delta-E    RMSDP     MaxDP     DIISErr   Damp  Time(sec)
-------------------------------------------------------------------------------------------
               ***  Starting incremental Fock matrix formation  ***
    1    -1563.3873627272582780     0.00e+00  5.50e-03  5.93e-01  4.72e-01  0.700   1.7
Warning: op=0 Small HOMO/LUMO gap (   0.046) - skipping pre-diagonalization
         Will do a full diagonalization
    2    -1565.5423011944681093    -2.15e+00  4.10e-03  4.36e-01  3.33e-01  0.700   1.9
    3    -1566.6118676611681622    -1.07e+00  2.25e-03  8.34e-02  2.42e-01  0.700   1.7
                               ***Turning on AO-DIIS***
    4    -1567.3592385205433857    -7.47e-01  1.69e-03  1.29e-01  1.72e-01  0.700   1.7
    5    -1567.8863307678780075    -5.27e-01  1.18e-03  9.19e-02  1.17e-01  0.700   1.7
    6    -1568.2578835320423423    -3.72e-01  7.99e-04  5.46e-02  8.03e-02  0.700   1.7
    7    -1568.5208629115436452    -2.63e-01  1.92e-03  9.22e-02  5.60e-02  0.000   1.7
    8    -1569.1292731873140838    -6.08e-01  3.77e-04  4.39e-02  2.59e-02  0.000   1.7
    9    -1569.1341465085411073    -4.87e-03  1.34e-04  9.94e-03  1.01e-02  0.000   1.6
   10    -1569.1344189770202320    -2.72e-04  6.05e-05  8.09e-03  6.71e-03  0.000   1.6
                              *** Initializing SOSCF ***
---------------------------------------S-O-S-C-F--------------------------------------
Iteration    Energy (Eh)           Delta-E    RMSDP     MaxDP     MaxGrad    Time(sec)
--------------------------------------------------------------------------------------
   11    -1569.1346951688660738    -2.76e-04  2.56e-05  3.21e-03  1.09e-03     1.8
               *** Restarting incremental Fock matrix formation ***
   12    -1569.1347094591687892    -1.43e-05  3.50e-05  3.72e-03  2.37e-04     1.8
   13    -1569.1347038020762739     5.66e-06  1.49e-05  1.59e-03  6.33e-04     1.5
   14    -1569.1347115432113242    -7.74e-06  1.27e-05  1.84e-03  5.64e-05     1.5
   15    -1569.1347111016334566     4.42e-07  4.95e-06  3.82e-04  9.65e-05     1.5
   16    -1569.1347116593219653    -5.58e-07  1.35e-05  1.29e-03  8.51e-06     1.5
   17    -1569.1347116529409504     6.38e-09  3.51e-06  3.12e-04  2.10e-05     1.5
                 **** Energy Check signals convergence ****

               *****************************************************
               *                     SUCCESS                       *
               *           SCF CONVERGED AFTER  17 CYCLES          *
               *****************************************************

             **** ENERGY FILE WAS UPDATED (m1_00_Vitamin_B9-GFN2_0004-B97-3C-TZ.en.tmp) ****

----------------
TOTAL SCF ENERGY
----------------

Total Energy       :      -1569.13471165294095 Eh          -42698.32625 eV

Components:
Nuclear Repulsion  :       3460.47749606219395 Eh           94164.37989 eV
Electronic Energy  :      -5029.61220771513399 Eh         -136862.70614 eV
One Electron Energy:      -9028.68180107640364 Eh         -245682.92209 eV
Two Electron Energy:       3999.06959336126920 Eh          108820.21595 eV

Virial components:
Potential Energy   :      -3133.06230286254231 Eh          -85254.95954 eV
Kinetic Energy     :       1563.92759120960136 Eh           42556.63329 eV
Virial Ratio       :          2.00332951504444

DFT components:
N(Alpha)           :      115.000000186635 electrons
N(Beta)            :      115.000000186635 electrons
N(Total)           :      230.000000373270 electrons
E(XC)              :     -209.222296538903 Eh       

---------------
SCF CONVERGENCE
---------------

  Last Energy change         ...   -6.3810e-09  Tolerance :   1.0000e-08
  Last MAX-Density change    ...    3.1217e-04  Tolerance :   1.0000e-07
  Last RMS-Density change    ...    3.5148e-06  Tolerance :   5.0000e-09
  Last DIIS Error            ...    1.0874e-03  Tolerance :   5.0000e-07
  Last Orbital Gradient      ...    2.1032e-05  Tolerance :   1.0000e-05
  Last Orbital Rotation      ...    2.8558e-05  Tolerance :   1.0000e-05


----------------
ORBITAL ENERGIES
----------------

  NO   OCC          E(Eh)            E(eV) 
   0   2.0000     -18.811387      -511.8839 
   1   2.0000     -18.779967      -511.0289 
   2   2.0000     -18.747816      -510.1540 
   3   2.0000     -18.737408      -509.8708 
   4   2.0000     -18.732741      -509.7438 
   5   2.0000     -18.701887      -508.9042 
   6   2.0000     -14.037503      -381.9799 
   7   2.0000     -14.025080      -381.6418 
   8   2.0000     -14.008148      -381.1811 
   9   2.0000     -14.006440      -381.1346 
  10   2.0000     -14.000250      -380.9662 
  11   2.0000     -13.992896      -380.7661 
  12   2.0000     -13.973749      -380.2450 
  13   2.0000     -10.031821      -272.9797 
  14   2.0000     -10.023509      -272.7536 
  15   2.0000     -10.013201      -272.4731 
  16   2.0000     -10.005946      -272.2756 
  17   2.0000      -9.978273      -271.5226 
  18   2.0000      -9.965976      -271.1880 
  19   2.0000      -9.953825      -270.8573 
  20   2.0000      -9.943448      -270.5750 
  21   2.0000      -9.940437      -270.4930 
  22   2.0000      -9.939031      -270.4548 
  23   2.0000      -9.936877      -270.3962 
  24   2.0000      -9.931706      -270.2555 
  25   2.0000      -9.913951      -269.7723 
  26   2.0000      -9.913055      -269.7479 
  27   2.0000      -9.893436      -269.2141 
  28   2.0000      -9.889681      -269.1119 
  29   2.0000      -9.888622      -269.0831 
  30   2.0000      -9.886492      -269.0251 
  31   2.0000      -9.885136      -268.9882 
  32   2.0000      -1.047461       -28.5029 
  33   2.0000      -1.027684       -27.9647 
  34   2.0000      -0.986123       -26.8338 
  35   2.0000      -0.960422       -26.1344 
  36   2.0000      -0.953244       -25.9391 
  37   2.0000      -0.944673       -25.7059 
  38   2.0000      -0.937854       -25.5203 
  39   2.0000      -0.917410       -24.9640 
  40   2.0000      -0.877320       -23.8731 
  41   2.0000      -0.856828       -23.3155 
  42   2.0000      -0.848457       -23.0877 
  43   2.0000      -0.847651       -23.0658 
  44   2.0000      -0.821356       -22.3502 
  45   2.0000      -0.780336       -21.2340 
  46   2.0000      -0.748689       -20.3729 
  47   2.0000      -0.728058       -19.8115 
  48   2.0000      -0.699276       -19.0283 
  49   2.0000      -0.684826       -18.6351 
  50   2.0000      -0.679051       -18.4779 
  51   2.0000      -0.653623       -17.7860 
  52   2.0000      -0.641474       -17.4554 
  53   2.0000      -0.612973       -16.6798 
  54   2.0000      -0.611185       -16.6312 
  55   2.0000      -0.593209       -16.1420 
  56   2.0000      -0.579354       -15.7650 
  57   2.0000      -0.563075       -15.3220 
  58   2.0000      -0.554757       -15.0957 
  59   2.0000      -0.549029       -14.9398 
  60   2.0000      -0.541850       -14.7445 
  61   2.0000      -0.534499       -14.5445 
  62   2.0000      -0.531597       -14.4655 
  63   2.0000      -0.502870       -13.6838 
  64   2.0000      -0.494539       -13.4571 
  65   2.0000      -0.484135       -13.1740 
  66   2.0000      -0.481646       -13.1063 
  67   2.0000      -0.468978       -12.7615 
  68   2.0000      -0.463145       -12.6028 
  69   2.0000      -0.458410       -12.4740 
  70   2.0000      -0.455469       -12.3940 
  71   2.0000      -0.441159       -12.0045 
  72   2.0000      -0.439612       -11.9625 
  73   2.0000      -0.438642       -11.9360 
  74   2.0000      -0.434499       -11.8233 
  75   2.0000      -0.426213       -11.5978 
  76   2.0000      -0.419743       -11.4218 
  77   2.0000      -0.414520       -11.2797 
  78   2.0000      -0.411420       -11.1953 
  79   2.0000      -0.407327       -11.0839 
  80   2.0000      -0.402642       -10.9565 
  81   2.0000      -0.391349       -10.6491 
  82   2.0000      -0.389043       -10.5864 
  83   2.0000      -0.378799       -10.3076 
  84   2.0000      -0.376822       -10.2538 
  85   2.0000      -0.374388       -10.1876 
  86   2.0000      -0.371192       -10.1006 
  87   2.0000      -0.366677        -9.9778 
  88   2.0000      -0.365120        -9.9354 
  89   2.0000      -0.362991        -9.8775 
  90   2.0000      -0.356532        -9.7017 
  91   2.0000      -0.354372        -9.6429 
  92   2.0000      -0.336957        -9.1691 
  93   2.0000      -0.332724        -9.0539 
  94   2.0000      -0.330142        -8.9836 
  95   2.0000      -0.329186        -8.9576 
  96   2.0000      -0.319437        -8.6923 
  97   2.0000      -0.302580        -8.2336 
  98   2.0000      -0.299556        -8.1513 
  99   2.0000      -0.298992        -8.1360 
 100   2.0000      -0.284482        -7.7411 
 101   2.0000      -0.274559        -7.4711 
 102   2.0000      -0.271402        -7.3852 
 103   2.0000      -0.260683        -7.0935 
 104   2.0000      -0.255718        -6.9584 
 105   2.0000      -0.251948        -6.8558 
 106   2.0000      -0.250901        -6.8274 
 107   2.0000      -0.239443        -6.5156 
 108   2.0000      -0.238816        -6.4985 
 109   2.0000      -0.222268        -6.0482 
 110   2.0000      -0.219561        -5.9746 
 111   2.0000      -0.211034        -5.7425 
 112   2.0000      -0.208057        -5.6615 
 113   2.0000      -0.201430        -5.4812 
 114   2.0000      -0.174861        -4.7582 
 115   0.0000      -0.097102        -2.6423 
 116   0.0000      -0.063861        -1.7378 
 117   0.0000      -0.045774        -1.2456 
 118   0.0000      -0.042848        -1.1660 
 119   0.0000      -0.032472        -0.8836 
 120   0.0000      -0.027533        -0.7492 
 121   0.0000      -0.013512        -0.3677 
 122   0.0000       0.002393         0.0651 
 123   0.0000       0.012893         0.3508 
 124   0.0000       0.019145         0.5210 
 125   0.0000       0.024337         0.6622 
*Only the first 10 virtual orbitals were printed.

                    ********************************
                    * MULLIKEN POPULATION ANALYSIS *
                    ********************************

-----------------------
MULLIKEN ATOMIC CHARGES
-----------------------
   0 O :   -0.512157
   1 O :   -0.483390
   2 O :   -0.386277
   3 O :   -0.456222
   4 O :   -0.502714
   5 O :   -0.503702
   6 N :   -0.372457
   7 N :   -0.311307
   8 N :   -0.013862
   9 N :   -0.054605
  10 N :   -0.357722
  11 N :   -0.171279
  12 N :   -0.652435
  13 C :   -0.078668
  14 C :   -0.270917
  15 C :   -0.369194
  16 C :    0.212483
  17 C :   -0.027763
  18 C :    0.378042
  19 C :    0.144142
  20 C :   -0.473013
  21 C :   -0.141929
  22 C :   -0.082337
  23 C :   -0.201034
  24 C :   -0.222571
  25 C :    0.459962
  26 C :    0.129870
  27 C :    0.073024
  28 C :   -0.166755
  29 C :   -0.096472
  30 C :    0.253950
  31 C :    0.395192
  32 H :    0.202615
  33 H :    0.157080
  34 H :    0.199349
  35 H :    0.199032
  36 H :    0.200447
  37 H :    0.361651
  38 H :    0.202910
  39 H :    0.215768
  40 H :    0.194369
  41 H :    0.186858
  42 H :    0.319892
  43 H :    0.153929
  44 H :    0.159516
  45 H :    0.166546
  46 H :    0.444693
  47 H :    0.366903
  48 H :    0.411409
  49 H :    0.359441
  50 H :    0.359707
Sum of atomic charges:    0.0000000

--------------------------------
MULLIKEN REDUCED ORBITAL CHARGES
--------------------------------
  0 O s       :     3.773027  s :     3.773027
      pz      :     1.537652  p :     4.698052
      px      :     1.534584
      py      :     1.625815
      dz2     :     0.013743  d :     0.041078
      dxz     :     0.005937
      dyz     :     0.005588
      dx2y2   :     0.006873
      dxy     :     0.008938

  1 O s       :     3.865261  s :     3.865261
      pz      :     1.670045  p :     4.583794
      px      :     1.463302
      py      :     1.450447
      dz2     :     0.004352  d :     0.034335
      dxz     :     0.009741
      dyz     :     0.004098
      dx2y2   :     0.008585
      dxy     :     0.007558

  2 O s       :     3.845027  s :     3.845027
      pz      :     1.480337  p :     4.508882
      px      :     1.491834
      py      :     1.536711
      dz2     :     0.006715  d :     0.032368
      dxz     :     0.011293
      dyz     :     0.003717
      dx2y2   :     0.005563
      dxy     :     0.005079

  3 O s       :     3.752032  s :     3.752032
      pz      :     1.379659  p :     4.686079
      px      :     1.702206
      py      :     1.604214
      dz2     :     0.002086  d :     0.018110
      dxz     :     0.003213
      dyz     :    -0.002103
      dx2y2   :     0.004811
      dxy     :     0.010104

  4 O s       :     3.837381  s :     3.837381
      pz      :     1.719791  p :     4.633486
      px      :     1.322659
      py      :     1.591036
      dz2     :     0.006522  d :     0.031847
      dxz     :     0.001957
      dyz     :     0.004069
      dx2y2   :     0.013888
      dxy     :     0.005411

  5 O s       :     3.853839  s :     3.853839
      pz      :     1.764059  p :     4.621491
      px      :     1.373361
      py      :     1.484071
      dz2     :     0.007376  d :     0.028371
      dxz     :     0.002266
      dyz     :     0.004226
      dx2y2   :     0.001738
      dxy     :     0.012766

  6 N s       :     3.312446  s :     3.312446
      pz      :     1.193367  p :     4.019652
      px      :     1.230828
      py      :     1.595458
      dz2     :     0.008903  d :     0.040358
      dxz     :     0.013945
      dyz     :     0.006251
      dx2y2   :     0.006033
      dxy     :     0.005226

  7 N s       :     3.369980  s :     3.369980
      pz      :     1.386406  p :     3.897775
      px      :     1.266480
      py      :     1.244888
      dz2     :     0.012284  d :     0.043552
      dxz     :     0.006609
      dyz     :     0.005966
      dx2y2   :     0.012192
      dxy     :     0.006501

  8 N s       :     3.476314  s :     3.476314
      pz      :     0.953376  p :     3.488519
      px      :     1.359716
      py      :     1.175427
      dz2     :     0.008984  d :     0.049029
      dxz     :     0.015857
      dyz     :     0.011907
      dx2y2   :     0.006535
      dxy     :     0.005745

  9 N s       :     3.498515  s :     3.498515
      pz      :     0.969843  p :     3.509637
      px      :     1.366662
      py      :     1.173132
      dz2     :     0.008682  d :     0.046453
      dxz     :     0.016673
      dyz     :     0.008692
      dx2y2   :     0.006304
      dxy     :     0.006102

 10 N s       :     3.323430  s :     3.323430
      pz      :     1.307857  p :     3.994144
[...]
114:   1446.73   0.000205    1.04  0.000044  (-0.000059 -0.004104 -0.005232)
115:   1451.89   0.001746    8.82  0.000375  (-0.001602 -0.004175 -0.018847)
116:   1470.24   0.000826    4.17  0.000175  ( 0.008634 -0.003510 -0.009401)
117:   1486.59   0.012526   63.30  0.002629  ( 0.030013  0.003960 -0.041388)
118:   1487.97   0.008208   41.48  0.001721  ( 0.024333  0.005629  0.033131)
119:   1499.87   0.020392  103.05  0.004243  (-0.033779 -0.014717 -0.053714)
120:   1518.39   0.005676   28.68  0.001167  (-0.009639  0.020776  0.025338)
121:   1519.54   0.048757  246.40  0.010013  (-0.072305  0.015702  0.067369)
122:   1527.54   0.026679  134.82  0.005450  ( 0.028904 -0.014404 -0.066387)
123:   1548.24   0.004960   25.06  0.001000  (-0.022977 -0.011838  0.018210)
124:   1555.05   0.022671  114.57  0.004550  (-0.030518 -0.001553  0.060132)
125:   1583.25   0.023262  117.56  0.004585  ( 0.005617  0.005810  0.067229)
126:   1609.08   0.006179   31.22  0.001198  ( 0.002178  0.012071  0.032370)
127:   1635.41   0.018858   95.30  0.003598  (-0.015899 -0.047536  0.032953)
128:   1643.38   0.051093  258.20  0.009702  ( 0.027420 -0.016025 -0.093239)
129:   1671.56   0.005909   29.86  0.001103  ( 0.019029  0.010443 -0.025141)
130:   1679.38   0.115036  581.34  0.021376  ( 0.067321  0.044950  0.121751)
131:   1692.35   0.007973   40.29  0.001470  ( 0.017494 -0.028897 -0.018143)
132:   1723.36   0.144115  728.30  0.026096  (-0.154111 -0.046998  0.011704)
133:   1780.88   0.041816  211.32  0.007328  (-0.058118 -0.018013 -0.060211)
134:   2938.35   0.194742  984.15  0.020682  (-0.087149  0.030735  0.110194)
135:   2994.76   0.010312   52.11  0.001075  ( 0.011670  0.001864 -0.030576)
136:   2996.49   0.002464   12.45  0.000257  (-0.012158  0.006414 -0.008227)
137:   3021.70   0.007735   39.09  0.000799  ( 0.016287  0.003517 -0.022831)
138:   3034.92   0.003308   16.72  0.000340  (-0.000658 -0.015051 -0.010641)
139:   3037.50   0.001171    5.92  0.000120  (-0.005846  0.007404  0.005593)
140:   3061.60   0.001433    7.24  0.000146  (-0.006934 -0.000304  0.009896)
141:   3076.54   0.011466   57.94  0.001163  ( 0.008677  0.002999 -0.032844)
142:   3078.16   0.003076   15.55  0.000312  (-0.003360 -0.014011 -0.010213)
143:   3113.96   0.286955  1450.15  0.028757  (-0.100339  0.013159  0.136073)
144:   3118.83   0.010779   54.47  0.001079  ( 0.007260 -0.015048 -0.028273)
145:   3142.06   0.005285   26.71  0.000525  ( 0.017786  0.007546 -0.012314)
146:   3142.50   0.001255    6.34  0.000125  (-0.004298  0.005858  0.008478)
147:   3156.82   0.002050   10.36  0.000203  ( 0.008619  0.006771 -0.009084)
148:   3534.31   0.016574   83.76  0.001463  (-0.007366 -0.018335 -0.032756)
149:   3548.58   0.002460   12.43  0.000216  (-0.002531 -0.012320 -0.007624)
150:   3566.22   0.010068   50.88  0.000881  (-0.029425  0.001463  0.003605)
151:   3653.00   0.009985   50.46  0.000853  ( 0.023608  0.011719 -0.012581)
152:   3670.44   0.009825   49.65  0.000835  (-0.024517  0.011520  0.010076)

* The epsilon (eps) is given for a Dirac delta lineshape.
** The dipole moment derivative (T) already includes vibrational overlap.

The first frequency considered to be a vibration is 6
The total number of vibrations considered is 147


--------------------------
THERMOCHEMISTRY AT 298.15K
--------------------------

Temperature         ...   298.15 K
Pressure            ...     1.00 atm
Total Mass          ...   441.40 AMU
Quasi RRHO          ...     True
Cut-Off Frequency   ...     1.00 cm^-1

Throughout the following assumptions are being made:
  (1) The electronic state is orbitally nondegenerate
  (2) There are no thermally accessible electronically excited states
  (3) Hindered rotations indicated by low frequency modes are not
      treated as such but are treated as vibrations and this may
      cause some error
  (4) All equations used are the standard statistical mechanics
      equations for an ideal gas
  (5) All vibrations are strictly harmonic

freq.      12.57  E(vib)   ...       0.57 
freq.      41.05  E(vib)   ...       0.54 
freq.      44.26  E(vib)   ...       0.53 
freq.      50.57  E(vib)   ...       0.52 
freq.      56.43  E(vib)   ...       0.52 
freq.      64.67  E(vib)   ...       0.50 
freq.      70.67  E(vib)   ...       0.50 
freq.      79.24  E(vib)   ...       0.49 
freq.      89.73  E(vib)   ...       0.47 
freq.      96.92  E(vib)   ...       0.46 
freq.     102.53  E(vib)   ...       0.46 
freq.     130.71  E(vib)   ...       0.43 
freq.     134.15  E(vib)   ...       0.42 
freq.     150.74  E(vib)   ...       0.40 
freq.     161.25  E(vib)   ...       0.39 
freq.     169.04  E(vib)   ...       0.38 
freq.     173.43  E(vib)   ...       0.38 
freq.     183.13  E(vib)   ...       0.37 
freq.     210.11  E(vib)   ...       0.34 
freq.     232.56  E(vib)   ...       0.32 
freq.     254.39  E(vib)   ...       0.30 
freq.     265.61  E(vib)   ...       0.29 
freq.     279.26  E(vib)   ...       0.28 
freq.     305.49  E(vib)   ...       0.26 
freq.     316.33  E(vib)   ...       0.25 
freq.     335.13  E(vib)   ...       0.24 
freq.     346.47  E(vib)   ...       0.23 
freq.     367.24  E(vib)   ...       0.22 
freq.     374.97  E(vib)   ...       0.21 
freq.     408.42  E(vib)   ...       0.19 
freq.     412.33  E(vib)   ...       0.19 
freq.     419.07  E(vib)   ...       0.18 
freq.     432.10  E(vib)   ...       0.18 
freq.     447.54  E(vib)   ...       0.17 
freq.     450.29  E(vib)   ...       0.17 
freq.     492.48  E(vib)   ...       0.14 
freq.     497.53  E(vib)   ...       0.14 
freq.     513.29  E(vib)   ...       0.13 
freq.     527.76  E(vib)   ...       0.13 
freq.     533.97  E(vib)   ...       0.13 
freq.     541.64  E(vib)   ...       0.12 
freq.     549.54  E(vib)   ...       0.12 
freq.     556.65  E(vib)   ...       0.12 
freq.     564.90  E(vib)   ...       0.11 
freq.     591.30  E(vib)   ...       0.10 
freq.     596.13  E(vib)   ...       0.10 
freq.     605.99  E(vib)   ...       0.10 
freq.     633.52  E(vib)   ...       0.09 
freq.     647.90  E(vib)   ...       0.08 
freq.     649.21  E(vib)   ...       0.08 
freq.     655.89  E(vib)   ...       0.08 
freq.     663.24  E(vib)   ...       0.08 
freq.     691.02  E(vib)   ...       0.07 
freq.     705.15  E(vib)   ...       0.07 
freq.     714.98  E(vib)   ...       0.07 
freq.     720.39  E(vib)   ...       0.07 
freq.     730.43  E(vib)   ...       0.06 
freq.     736.06  E(vib)   ...       0.06 
freq.     760.74  E(vib)   ...       0.06 
freq.     792.68  E(vib)   ...       0.05 
freq.     800.78  E(vib)   ...       0.05 
freq.     809.42  E(vib)   ...       0.05 
freq.     820.18  E(vib)   ...       0.05 
freq.     828.45  E(vib)   ...       0.04 
freq.     844.70  E(vib)   ...       0.04 
freq.     860.97  E(vib)   ...       0.04 
freq.     886.75  E(vib)   ...       0.04 
freq.     902.16  E(vib)   ...       0.03 
freq.     905.02  E(vib)   ...       0.03 
freq.     914.13  E(vib)   ...       0.03 
freq.     919.27  E(vib)   ...       0.03 
freq.     940.48  E(vib)   ...       0.03 
freq.     971.30  E(vib)   ...       0.03 
freq.     979.04  E(vib)   ...       0.03 
freq.     987.53  E(vib)   ...       0.02 
freq.     999.60  E(vib)   ...       0.02 
freq.    1024.25  E(vib)   ...       0.02 
freq.    1045.65  E(vib)   ...       0.02 
freq.    1061.86  E(vib)   ...       0.02 
freq.    1062.99  E(vib)   ...       0.02 
freq.    1082.54  E(vib)   ...       0.02 
freq.    1096.21  E(vib)   ...       0.02 
freq.    1119.33  E(vib)   ...       0.01 
freq.    1146.17  E(vib)   ...       0.01 
freq.    1152.60  E(vib)   ...       0.01 
freq.    1158.20  E(vib)   ...       0.01 
freq.    1176.59  E(vib)   ...       0.01 
freq.    1208.70  E(vib)   ...       0.01 
freq.    1213.45  E(vib)   ...       0.01 
freq.    1223.26  E(vib)   ...       0.01 
freq.    1240.68  E(vib)   ...       0.01 
freq.    1246.88  E(vib)   ...       0.01 
freq.    1255.58  E(vib)   ...       0.01 
freq.    1282.06  E(vib)   ...       0.01 
freq.    1298.22  E(vib)   ...       0.01 
freq.    1299.44  E(vib)   ...       0.01 
freq.    1306.92  E(vib)   ...       0.01 
freq.    1327.67  E(vib)   ...       0.01 
freq.    1333.48  E(vib)   ...       0.01 
freq.    1339.53  E(vib)   ...       0.01 
freq.    1350.28  E(vib)   ...       0.01 
freq.    1353.02  E(vib)   ...       0.01 
freq.    1367.45  E(vib)   ...       0.01 
freq.    1378.41  E(vib)   ...       0.01 
freq.    1381.00  E(vib)   ...       0.01 
freq.    1388.24  E(vib)   ...       0.00 
freq.    1390.91  E(vib)   ...       0.00 
freq.    1423.42  E(vib)   ...       0.00 
freq.    1446.73  E(vib)   ...       0.00 
freq.    1451.89  E(vib)   ...       0.00 
freq.    1470.24  E(vib)   ...       0.00 
freq.    1486.59  E(vib)   ...       0.00 
freq.    1487.97  E(vib)   ...       0.00 
freq.    1499.87  E(vib)   ...       0.00 
freq.    1518.39  E(vib)   ...       0.00 
freq.    1519.54  E(vib)   ...       0.00 
freq.    1527.54  E(vib)   ...       0.00 
freq.    1548.24  E(vib)   ...       0.00 
freq.    1555.05  E(vib)   ...       0.00 
freq.    1583.25  E(vib)   ...       0.00 
freq.    1609.08  E(vib)   ...       0.00 
freq.    1635.41  E(vib)   ...       0.00 
freq.    1643.38  E(vib)   ...       0.00 
freq.    1671.56  E(vib)   ...       0.00 
freq.    1679.38  E(vib)   ...       0.00 
freq.    1692.35  E(vib)   ...       0.00 
freq.    1723.36  E(vib)   ...       0.00 
freq.    1780.88  E(vib)   ...       0.00 
freq.    2938.35  E(vib)   ...       0.00 
freq.    2994.76  E(vib)   ...       0.00 
freq.    2996.49  E(vib)   ...       0.00 
freq.    3021.70  E(vib)   ...       0.00 
freq.    3034.92  E(vib)   ...       0.00 
freq.    3037.50  E(vib)   ...       0.00 
freq.    3061.60  E(vib)   ...       0.00 
freq.    3076.54  E(vib)   ...       0.00 
freq.    3078.16  E(vib)   ...       0.00 
freq.    3113.96  E(vib)   ...       0.00 
freq.    3118.83  E(vib)   ...       0.00 
freq.    3142.06  E(vib)   ...       0.00 
freq.    3142.50  E(vib)   ...       0.00 
freq.    3156.82  E(vib)   ...       0.00 
freq.    3534.31  E(vib)   ...       0.00 
freq.    3548.58  E(vib)   ...       0.00 
freq.    3566.22  E(vib)   ...       0.00 
freq.    3653.00  E(vib)   ...       0.00 
freq.    3670.44  E(vib)   ...       0.00 

------------
INNER ENERGY
------------

The inner energy is: U= E(el) + E(ZPE) + E(vib) + E(rot) + E(trans)
    E(el)   - is the total energy from the electronic structure calculation
              = E(kin-el) + E(nuc-el) + E(el-el) + E(nuc-nuc)
    E(ZPE)  - the the zero temperature vibrational energy from the frequency calculation
    E(vib)  - the the finite temperature correction to E(ZPE) due to population
              of excited vibrational states
    E(rot)  - is the rotational thermal energy
    E(trans)- is the translational thermal energy

Summary of contributions to the inner energy U:
Electronic energy                ...  -1569.48651656 Eh
Zero point energy                ...      0.38697642 Eh     242.83 kcal/mol
Thermal vibrational correction   ...      0.02493499 Eh      15.65 kcal/mol
Thermal rotational correction    ...      0.00141627 Eh       0.89 kcal/mol
Thermal translational correction ...      0.00141627 Eh       0.89 kcal/mol
-----------------------------------------------------------------------
Total thermal energy                  -1569.07177260 Eh


Summary of corrections to the electronic energy:
(perhaps to be used in another calculation)
Total thermal correction                  0.02776753 Eh      17.42 kcal/mol
Non-thermal (ZPE) correction              0.38697642 Eh     242.83 kcal/mol
-----------------------------------------------------------------------
Total correction                          0.41474396 Eh     260.26 kcal/mol


--------
ENTHALPY
--------

The enthalpy is H = U + kB*T
                kB is Boltzmann's constant
Total thermal energy              ...  -1569.07177260 Eh 
Thermal Enthalpy correction       ...      0.00094421 Eh       0.59 kcal/mol
-----------------------------------------------------------------------
Total Enthalpy                    ...  -1569.07082839 Eh


Note: Only C1 symmetry has been detected, increase convergence thresholds 
      if your molecule has a higher symmetry. Symmetry factor of 1.0 is   
      used for the rotational entropy correction. 
 

Note: Rotational entropy computed according to Herzberg 
Infrared and Raman Spectra, Chapter V,1, Van Nostrand Reinhold, 1945 
Point Group:  C1, Symmetry Number:   1  
Rotational constants in cm-1:     0.007785     0.003453     0.002712 

Vibrational entropy computed according to the QRRHO of S. Grimme
Chem.Eur.J. 2012 18 9955 using a reference frequency of 100.0 cm-1


-------
ENTROPY
-------

The entropy contributions are T*S = T*(S(el)+S(vib)+S(rot)+S(trans))
     S(el)   - electronic entropy
     S(vib)  - vibrational entropy
     S(rot)  - rotational entropy
     S(trans)- translational entropy
The entropies will be listed as multiplied by the temperature to get
units of energy

Electronic entropy                ...      0.00000000 Eh      0.00 kcal/mol
Vibrational entropy               ...      0.04415146 Eh     27.71 kcal/mol
Rotational entropy                ...      0.01726931 Eh     10.84 kcal/mol
Translational entropy             ...      0.02097411 Eh     13.16 kcal/mol
-----------------------------------------------------------------------
Final entropy term                ...      0.08239487 Eh     51.70 kcal/mol

In case the symmetry of your molecule has not been determined correctly
or in case you have a reason to use a different symmetry number we print 
out the resulting rotational entropy values for sn=1,12:

 non-linear molecules -----------------------------------
|  sn= 1 | S(rot)=       0.01726931 Eh     10.84 kcal/mol|
|  sn= 2 | S(rot)=       0.01661485 Eh     10.43 kcal/mol|
|  sn= 3 | S(rot)=       0.01623202 Eh     10.19 kcal/mol|
|  sn= 4 | S(rot)=       0.01596039 Eh     10.02 kcal/mol|
|  sn= 5 | S(rot)=       0.01574970 Eh      9.88 kcal/mol|
|  sn= 6 | S(rot)=       0.01557756 Eh      9.78 kcal/mol|
|  sn= 7 | S(rot)=       0.01543201 Eh      9.68 kcal/mol|
|  sn= 8 | S(rot)=       0.01530594 Eh      9.60 kcal/mol|
|  sn= 9 | S(rot)=       0.01519473 Eh      9.53 kcal/mol|
|  sn=10 | S(rot)=       0.01509525 Eh      9.47 kcal/mol|
|  sn=11 | S(rot)=       0.01500526 Eh      9.42 kcal/mol|
|  sn=12 | S(rot)=       0.01492310 Eh      9.36 kcal/mol|
 linear molecules ---------------------------------------
|  Dinfh | S(rot)=       0.01090601 Eh      6.84 kcal/mol|
|  Cinfv | S(rot)=       0.01156047 Eh      7.25 kcal/mol|
 --------------------------------------------------------


-------------------
GIBBS FREE ENERGY
-------------------

The Gibbs free energy is G = H - T*S

Total enthalpy                    ...  -1569.07082839 Eh 
Total entropy correction          ...     -0.08239487 Eh    -51.70 kcal/mol
-----------------------------------------------------------------------
Final Gibbs free energy         ...  -1569.15322327 Eh

For completeness - the Gibbs free energy minus the electronic energy
G-E(el)                           ...      0.33329329 Eh    209.14 kcal/mol


Maximum memory used throughout the entire PROP-calculation: 196.0 MB

--------------------------------
SUGGESTED CITATIONS FOR THIS RUN
--------------------------------

Below you find a list of papers that are relevant to this ORCA run
We neither can nor want to force you to cite these papers, but we appreciate if you do
You receive ORCA, which is the product of decades of hard work by many enthusiastic individuals, for free
The only thing we kindly ask in return is that you cite our papers,
We deeply appreciate it, if you show your appreciation for ORCA by not just citing the generic ORCA reference.

Please note that relegating all ORCA citations to the supporting information does *not* help us.
SI sections are not indexed - citations you put there will not count into any citation statistics
But we need these citations in order to attract the funding resources that allow us to do what we are doing

Therefore, if you are a happy ORCA user, please consider citing a few of the papers listed below in the main body of your paper

In addition to the list printed below, the program has created the file m1_00_Vitamin_B9-GFN2_0004-B97-3C-TZ.bibtex that contains the list in bibtex format
You can import this file easily into all common literature databanks and citation aid programs


List of essential papers. We consider these as the minimum necessary citations

  1. Neese,F.
     Software update: the ORCA program system, version 5.0
     WIRES Comput. Molec. Sci., 2022 12(1)e1606
     doi.org/10.1002/wcms.1606

List of papers to cite with high priority. The work reported in these papers was absolutely
necessary for this run to complete.
Our perspective: the developers of density functionals and basis sets usually get cited in chemistry papers
Good! But without the algorithms to do something with them, the functionals or basis sets would not do anything.
Hence, in our opinion, the algorithm design and method developments papers are equally worthy of getting cited

  1. Neese,F.
     An improvement of the resolution of the identity approximation for the formation of the Coulomb matrix
     J. Comp. Chem., 2003 24(14)1740-1747
     doi.org/10.1002/jcc.10318
  2. Bykov,D.; Petrenko,T.; Izsak,R.; Kossmann,S.; Becker,U.; Valeev,E.; Neese,F.
     Efficient implementation of the analytic second derivatives of Hartree-Fock and hybrid DFT energies: a detailed analysis of different approximations
     Molec. Phys., 2015 113 1961-1977
     doi.org/10.1080/00268976.2015.1025114
  3. Neese,F.
     The SHARK Integral Generation and Digestion System
     J. Comp. Chem., 2022  1-16
     doi.org/10.1002/jcc.26942
  4. Grimme,S.; Antony,J.; Ehrlich,S.; Krieg,H.
     A consistent and accurate ab initio parametrization of density functional dispersion correction (DFT-D) for the 94 elements H-Pu
     J. Chem. Phys., 2010 132 154104
     doi.org/10.1063/1.3382344
  5. Grimme,S.; Ehrlich,S.; Goerigk,L.
     Effect of the damping function in dispersion corrected density functional theory
     J. Comput. Chem., 2011 32(7)1456-1465
     doi.org/10.1002/jcc.21759

List of suggested additional citations. These are papers that are important in the 'surrounding' of 
of this run, or papers that preceded the highly important papers. If you like your results we are grateful for a citation.

  1. Neese,F.
     The ORCA program system
     WIRES Comput. Molec. Sci., 2012 2(1)73-78
     doi.org/10.1002/wcms.81
  2. Neese,F.
     Software update: the ORCA program system, version 4.0
     WIRES Comput. Molec. Sci., 2018 8(1)1-6
     doi.org/10.1002/wcms.1327
  3. Neese,F.; Wennmohs,F.; Becker,U.; Riplinger,C.
     The ORCA quantum chemistry program package
     J. Chem. Phys., 2020 152 Art. No. L224108
     doi.org/10.1063/5.0004608

List of optional additional citations

  1. Neese,F.
     Approximate second-order SCF convergence for spin unrestricted wavefunctions
     Chem. Phys. Lett., 2000 325(1-3)93-98
     doi.org/10.1016/s0009-2614(00)00662-x

Timings for individual modules:

Sum of individual times          ...     1873.812 sec (=  31.230 min)
Startup calculation              ...      170.463 sec (=   2.841 min)   9.1 %
SCF iterations                   ...      606.005 sec (=  10.100 min)  32.3 %
Property integrals               ...      280.701 sec (=   4.678 min)  15.0 %
SCF Response                     ...      425.206 sec (=   7.087 min)  22.7 %
Property calculations            ...       96.265 sec (=   1.604 min)   5.1 %
SCF Gradient evaluation          ...      294.713 sec (=   4.912 min)  15.7 %
Geometry relaxation              ...        0.460 sec (=   0.008 min)   0.0 %
                             ****ORCA TERMINATED NORMALLY****
TOTAL RUN TIME: 0 days 0 hours 31 minutes 20 seconds 562 msec
