
                                 *****************
                                 * O   R   C   A *
                                 *****************

                                            #,                                       
                                            ###                                      
                                            ####                                     
                                            #####                                    
                                            ######                                   
                                           ########,                                 
                                     ,,################,,,,,                         
                               ,,#################################,,                 
                          ,,##########################################,,             
                       ,#########################################, ''#####,          
                    ,#############################################,,   '####,        
                  ,##################################################,,,,####,       
                ,###########''''           ''''###############################       
              ,#####''   ,,,,##########,,,,          '''####'''          '####       
            ,##' ,,,,###########################,,,                        '##       
           ' ,,###''''                  '''############,,,                           
         ,,##''                                '''############,,,,        ,,,,,,###''
      ,#''                                            '''#######################'''  
     '                                                          ''''####''''         
             ,#######,   #######,   ,#######,      ##                                
            ,#'     '#,  ##    ##  ,#'     '#,    #''#        ,####,   ,####,        
            ##       ##  ##   ,#'  ##            #'  '#       #'       #'  '#        
            ##       ##  #######   ##           ,######,      #####,   #    #        
            '#,     ,#'  ##    ##  '#,     ,#' ,#      #,     #,   #   #,  ,#        
             '#######'   ##     ##  '#######'  #'      '#     '####' # '####'        



                #########################################################
                #                        -***-                          #
                #          Department of theory and spectroscopy        #
                #                                                       #
                #                      Frank Neese                      #
                #                                                       #
                #     Directorship, Architecture, Infrastructure        #
                #                    SHARK, DRIVERS                     #
                #        Core code/Algorithms in most modules           #
                #                                                       #
                #        Max Planck Institute fuer Kohlenforschung      #
                #                Kaiser Wilhelm Platz 1                 #
                #                 D-45470 Muelheim/Ruhr                 #
                #                      Germany                          #
                #                                                       #
                #                  All rights reserved                  #
                #                        -***-                          #
                #########################################################


                         Program Version 6.0.1  -  RELEASE   -


 With contributions from (in alphabetic order):
[Max-Planck-Institut fuer Kohlenforschung]                               
  Daniel Aravena         : Magnetic Suceptibility                        
  Michael Atanasov       : Ab Initio Ligand Field Theory (pilot matlab implementation)
  Alexander A. Auer      : GIAO ZORA, VPT2 properties, NMR spectrum      
  Ute Becker             : All parallelization in ORCA, NUMFREQ, NUMCALC 
  Giovanni Bistoni       : ED, misc. LED, open-shell LED, HFLD           
  Martin Brehm           : Molecular dynamics                            
  Dmytro Bykov           : pre 5.0 version of the SCF Hessian            
  Marcos Casanova-Páez   : Triplet and SCS-CIS(D). UHF-(DLPNO)-IP/EA/STEOM-CCSD. UHF-CVS-IP/STEOM-CCSD   
  Vijay G. Chilkuri      : MRCI spin determinant printing, contributions to CSF-ICE 
  Pauline Colinet        : FMM embedding                                 
  Dipayan Datta          : RHF DLPNO-CCSD density                        
  Achintya Kumar Dutta   : EOM-CC, STEOM-CC                              
  Nicolas Foglia         : Exact transition moments, OPA infrastructure, MCD improvements    
  Dmitry Ganyushin       : Spin-Orbit,Spin-Spin,Magnetic field MRCI      
  Miquel Garcia-Rates    : C-PCM and meta-GGA Hessian, CCSD/C-PCM, Gaussian charge scheme 
  Tiago L. C. Gouveia    : GS-ROHF, GS-ROCIS                             
  Yang Guo               : DLPNO-NEVPT2, F12-NEVPT2, CIM, IAO-localization        
  Andreas Hansen         : Spin unrestricted coupled pair/coupled cluster methods 
  Ingolf Harden          : AUTO-CI MPn and infrastructure                
  Benjamin Helmich-Paris : MC-RPA, TRAH-(SCF,CASSCF), AVAS, COSX integrals, SCF dyn. polar. 
  Lee Huntington         : MR-EOM, pCC                                   
  Robert Izsak           : Overlap fitted RIJCOSX, COSX-SCS-MP3, EOM     
  Riya Kayal             : Wick's Theorem for AUTO-CI, AUTO-CI UHF-CCSDT 
  Emily Kempfer          : AUTO-CI, RHF CISDT and CCSDT                  
  Christian Kollmar      : KDIIS, OOCD, Brueckner-CCSD(T), CCSD density, CASPT2, CASPT2-K, improved NEVPT2 
  Axel Koslowski         : Symmetry handling                             
  Simone Kossmann        : meta-GGA functionals, TD-DFT gradient, OOMP2, (MP2 Hessian; deprecated post 5.0) 
  Lucas Lang             : DCDCAS                                        
  Marvin Lechner         : AUTO-CI (C++ implementation), FIC-MRCC        
  Spencer Leger          : CASSCF response                               
  Dagmar Lenk            : GEPOL surface, SMD, ORCA-2-JSON               
  Dimitrios Liakos       : Extrapolation schemes; Compound Job, initial MDCI parallelization 
  Dimitrios Manganas     : Further ROCIS development; embedding schemes. LFT, Crystal Embedding 
  Dimitrios Pantazis     : SARC Basis sets                               
  Anastasios Papadopoulos: AUTO-CI, single reference methods and gradients 
  Taras Petrenko         : pre 6.0 DFT Hessian and TD-DFT gradient, (ASA, deprecated), ECA, 1-Electron XAS/XES, NRVS 
  Peter Pinski           : DLPNO-MP2, DLPNO-MP2 Gradient                 
  Christoph Reimann      : Effective Core Potentials                     
  Marius Retegan         : Local ZFS, SOC                                
  Christoph Riplinger    : Optimizer, TS searches, QM/MM, DLPNO-CCSD(T), (RO)-DLPNO pert. Triples 
  Michael Roemelt        : Original ROCIS implementation                 
  Masaaki Saitow         : Open-shell DLPNO-CCSD energy and density      
  Barbara Sandhoefer     : DKH picture change effects                    
  Kantharuban Sivalingam : CASSCF convergence/infrastructure, NEVPT2 and variants, FIC-MRCI 
  Bernardo de Souza      : ESD, SOC TD-DFT                               
  Georgi L. Stoychev     : AutoAux, RI-MP2 NMR, DLPNO-MP2 response, X2C  
  Van Anh Tran           : RI-MP2 g-tensors                              
  Willem Van den Heuvel  : Paramagnetic NMR                              
  Zikuan Wang            : NOTCH, Electric field optimization            
  Frank Wennmohs         : Technical directorship and infrastructure     
  Hang Xu                : AUTO-CI-Response properties                   
                                                                         
[FACCTs GmbH]                                                            
  Markus Bursch, Miquel Garcia-Rates, Christoph Riplinger, Bernardo de Souza, Georgi L. Stoychev 
                                                                 
  APM, Basis sets (HGBS, AHGBS, def-TZVP (Ac-Lr), def2-XVPD (La-Lu)), CI-OPT, improved COSX, DLPNO-Multilevel,           
  DOCKER, DRACO, updates on ESD, GOAT, IRC, LR-CPCM, MBIS, meta-GGA TD-DFT gradient, ML-optimized integration grids, 
  MM, NACMEs, nearIR, NEB, NEB-TS, NL-DFT gradient (VV10), 2- and 3-layer-ONIOM, interface openCOSMO-RS, QMMM,   
  Crystal-QMMM, SF, symmetry and pop. for TD-DFT, r2SCAN hybrids, SOLVATOR                                   
                                                                         
[Other institutions]                                                     
  V. Asgeirsson          : NEB                                           
  Christoph Bannwarth    : sTDA-DFT, sTD-DFT, PBEh-3c, B97-3c, D3        
  Sebastian Ehlert       : rSCAN, r2SCAN, r2SCAN-3c, D4, dhf basis sets  
  Marvin Friede          : D4 for Fr, Ra, Ac-Lr                          
  Lars Goerigk           : TD-DFT with DH, B97 family of functionals     
  Stefan Grimme          : VdW corrections, initial TS optimization, DFT functionals, gCP, sTDA/sTD-DF 
  Waldemar Hujo          : DFT-NL                                        
  H. Jonsson             : NEB                                           
  Holger Kruse           : gCP                                           
  Marcel Mueller         : wB97X-3c, vDZP basis set                      
  Hagen Neugebauer       : wr2SCAN                                       
  Tobias Risthaus        : range-separated hybrid DFT                    
  Lukas Wittmann         : regularized MP2, r2SCAN double-hybrids, wr2SCAN        
                                                                         
We gratefully acknowledge several colleagues who have allowed us to      
interface, adapt or use parts of their codes:                            
  Ed Valeev, F. Pavosevic, A. Kumar             : LibInt (2-el integral package), F12 methods 
  Garnet Chan, S. Sharma, J. Yang, R. Olivares  : DMRG                   
  Ulf Ekstrom                                   : XCFun DFT Library      
  Mihaly Kallay                                 : mrcc  (arbitrary order and MRCC methods)
  Frank Weinhold                                : gennbo (NPA and NBO analysis)           
  Simon Mueller                                 : openCOSMO-RS                            
  Christopher J. Cramer and Donald G. Truhlar   : smd solvation model                     
  S Lehtola, MJT Oliveira, MAL Marques          : LibXC Library                           
  Liviu Ungur et al                             : ANISO software                          


 Your calculation uses the libint2 library for the computation of 2-el integrals
 For citations please refer to: http://libint.valeyev.net

 Your ORCA version has been built with support for libXC version: 6.2.2
 For citations please refer to: https://libxc.gitlab.io

 This ORCA versions uses:
   CBLAS   interface :  Fast vector & matrix operations
   LAPACKE interface :  Fast linear algebra routines
   SCALAPACK package :  Parallel linear algebra routines
   Shared memory     :  Shared parallel matrices
   BLAS/LAPACK       :  OpenBLAS 0.3.27  USE64BITINT DYNAMIC_ARCH NO_AFFINITY Zen SINGLE_THREADED
        Core in use  :  Zen
   Copyright (c) 2011-2014, The OpenBLAS Project


NOTE: MaxCore=6000 MB was set to SCF,MP2,MDCI,CIPSI,MRCI and CIS
      => If you want to overwrite this, your respective input block should be placed after the MaxCore statement
Your calculation utilizes the atom-pairwise dispersion correction
with the Becke-Johnson damping scheme (D3BJ)


Your calculation employs the composite approach B97-3c by Grimme and coworkers.
For the correct reference, please check the publication list of the Grimme group:
http://www.thch.uni-bonn.de/tc/index.php?section=publikationen&subsection=grimme#2017
   

XCFun DFT library Copyright 2009-2010 Ulf Ekstrom and contributors.
See http://admol.org/xcfun for more information.
This is free software; see the source code for copying conditions.
There is ABSOLUTELY NO WARRANTY; not even for MERCHANTABILITY or FITNESS FOR A PARTICULAR PURPOSE.
For details see the documentation.
Scientific users of this library should cite U. Ekstrom, L. Visscher, R. Bast, A. J. Thorvaldsen and K. Ruud;
J.Chem.Theor.Comp. 2010, DOI: 10.1021/ct100117s
XCFun Version 0.99 

================================================================================

----- Orbital basis set information -----
Your calculation utilizes the basis: def2-mTZVP
----- AuxJ basis set information -----
Your calculation utilizes the basis: def2-mTZVP/J
================================================================================
                                        WARNINGS
                       Please study these warnings very carefully!
================================================================================


WARNING: Geometry Optimization
  ===> : Switching off AutoStart
         For restart on a previous wavefunction, please use MOREAD

================================================================================
                                       INPUT FILE
================================================================================
NAME = m1_00_Vitamin_B9-GFN2_0001-B97-3C-TZ.inp
|  1> %pal nprocs 16 end
|  2> %MaxCore 6000
|  3> # put your comments here
|  4> ! B97-3C  OPT  FREQ DEFGRID3 NOTRAH
|  5> %scf MaxIter 800 end
|  6> %output
|  7> Print [P_Hirshfeld] 1
|  8> end
|  9> %geom
| 10> MaxIter 3000
| 11>  TolE 1e-6 #TolE 5e-6 Energy change (a.u.)
| 12>  TolRMSG 3e-5 #TolRMSG 1e-4 RMS gradient (a.u.)
| 13>  TolMaxG 1e-4 #TolMaxG 3e-3 Max. element of gradient (a.u.)
| 14>  TolRMSD 2e-3 #TolRMSD 2e-3 RMS displacement (a.u.)
| 15>  TolMaxD 4e-3 #TolMaxD 4e-3 Max. displacement (a.u.)
| 16> end
| 17> * xyz 0 1
| 18>  O -0.14877511816058 -8.54859211087267 -2.80832291472445
| 19>  O -0.59284379692283 -8.48192661252320 -0.24200944937881
| 20>  O 1.27969531973440 -7.36247287181460 -4.01489129614886
| 21>  O 2.63248109209750 -5.22750390166528 0.65196918855961
| 22>  O 0.96349426778457 -3.79800159293880 1.02059544433264
| 23>  O 2.41275004512338 -5.90661642893828 3.15910846712017
| 24>  N 1.37967256451625 -7.46445136850211 -0.59350307586440
| 25>  N 2.44458461083924 -10.06886429100784 5.15166951831008
| 26>  N 1.62332173502562 -7.57133779027124 5.29870522357081
| 27>  N -0.46875728874437 -6.67082657729981 6.87439149064247
| 28>  N 0.65573258574508 -4.56501550916103 3.62560248816854
| 29>  N -0.77084155102245 -4.84966095402138 5.48048164248098
| 30>  N -1.09077568951534 -3.11506425778557 4.02695861761587
| 31>  C 0.91874975024526 -6.67245534778542 -1.72439727856528
| 32>  C 1.88471249837749 -5.52877695965731 -2.02779232305248
| 33>  C 1.59045894860156 -4.25169830097580 -1.24041316176264
| 34>  C 0.56126750995957 -8.25160259624222 0.13674950057729
| 35>  C 1.10254452483950 -8.79356685004067 1.39298112036853
| 36>  C 0.71440858351680 -7.57257357483164 -2.97725839206459
| 37>  C 1.98021316481991 -9.68614786792406 3.90725180457664
| 38>  C 1.66577702495201 -9.73747009698943 6.32678880367009
| 39>  C 0.19414666061752 -9.23833279586598 2.35550598912695
| 40>  C 2.46636462876763 -8.88445800094976 1.67884352801140
| 41>  C 0.61715158805748 -9.67635611797756 3.58860982002799
| 42>  C 2.89240725644352 -9.33436625262401 2.90565300469652
| 43>  C 1.69286798891223 -4.40869698505128 0.25915101281659
| 44>  C 1.13606650949498 -8.32168179397933 6.26419148985054
| 45>  C 1.04281905115561 -6.40213717239857 5.05301015962590
| 46>  C 0.11552455711599 -7.82249394814809 7.09357492277708
| 47>  C -0.07208713720233 -5.95976279536975 5.80719933375181
| 48>  C 1.46710654280234 -5.63825353494373 3.89162535182640
| 49>  C -0.41305883722696 -4.21026394797105 4.40757195390358
| 50>  H -0.08069686302000 -6.27635037159287 -1.47895328196605
| 51>  H 2.90654319397617 -5.85870051948364 -1.83474389710873
| 52>  H 1.81140518774026 -5.30921004143608 -3.09445237771154
| 53>  H 0.59362548661979 -3.87102312854919 -1.46934045860778
| 54>  H 2.31239495631256 -3.48228736680546 -1.52750595453681
| 55>  H 2.29563687476970 -7.24071920094973 -0.23694269868519
| 56>  H 2.29153703914684 -9.87706076287769 7.21186489543407
| 57>  H 0.81566967658742 -10.42362217555910 6.41548510450149
| 58>  H -0.85890660923917 -9.20655681100659 2.11828747505558
| 59>  H 3.20855668841515 -8.61295618554545 0.94263937594175
| 60>  H 3.42733814767436 -9.85675632681488 5.26060947728646
| 61>  H -0.11403937178229 -9.98696111675705 4.31904116367896
| 62>  H 3.95025046654398 -9.38072351239876 3.11984682834078
| 63>  H -0.23266081697932 -8.37771022151413 7.95527532326457
| 64>  H -0.50963273830658 -8.57806549740159 -1.86971743607903
| 65>  H 0.81507608716005 -4.08505031551198 2.72188670144459
| 66>  H 2.62953156825415 -5.40740270700397 1.65117306696545
| 67>  H -1.92677934668490 -2.88687312870378 4.53491966008972
| 68>  H -0.92156021775117 -2.70221440367550 3.12611404784432
| 69> *
| 70> 
| 71> 
| 72> 
| 73> 
| 74>                          ****END OF INPUT****
================================================================================

                       *****************************
                       * Geometry Optimization Run *
                       *****************************

Geometry optimization settings:
Update method            Update   .... BFGS
Choice of coordinates    CoordSys .... (2022) Redundant Internals
Initial Hessian          InHess   .... Almloef's Model
Max. no of cycles        MaxIter  .... 3000

Convergence Tolerances:
Energy Change            TolE     ....  1.0000e-06 Eh
Max. Gradient            TolMAXG  ....  1.0000e-04 Eh/bohr
RMS Gradient             TolRMSG  ....  3.0000e-05 Eh/bohr
Max. Displacement        TolMAXD  ....  4.0000e-03 bohr
RMS Displacement         TolRMSD  ....  2.0000e-03 bohr
Strict Convergence                .... False

------------------------------------------------------------------------------
                        ORCA OPTIMIZATION COORDINATE SETUP
------------------------------------------------------------------------------

The optimization will be done in redundant internal coordinates (2022)
Making redundant internal coordinates   ...  (2022 redundants) done
Evaluating the initial hessian          ...  (Almloef) done
Evaluating the coordinates              ...  done
Calculating the B-matrix                .... done
Calculating the G-matrix                .... done
Diagonalizing the G-matrix              .... done
Small eigenvalue found = 1.612e-03
Small eigenvalue found = 3.259e-03
Small eigenvalue found = 6.183e-03
Small eigenvalue found = 1.212e-02
Small eigenvalue found = 1.883e-02
Small eigenvalue found = 2.380e-02
The first mode is                       ....  110
The number of degrees of freedom        ....  147

    -----------------------------------------------------------------
                    Redundant Internal Coordinates


    -----------------------------------------------------------------
         Definition                    Initial Value    Approx d2E/dq
    -----------------------------------------------------------------
      1. B(C  13,N   6)                  1.4556         0.439838   
      2. B(C  14,C  13)                  1.5275         0.377077   
      3. B(C  15,C  14)                  1.5289         0.375112   
      4. B(C  16,N   6)                  1.3501         0.648032   
      5. B(C  16,O   1)                  1.2363         0.984162   
      6. B(C  17,C  16)                  1.4713         0.463420   
      7. B(C  18,O   0)                  1.3139         0.740195   
      8. B(C  18,C  13)                  1.5562         0.339346   
      9. B(C  18,O   2)                  1.2002         1.123984   
     10. B(C  19,N   7)                  1.3823         0.575702   
     11. B(C  20,N   7)                  1.4482         0.451886   
     12. B(C  21,C  17)                  1.3962         0.610660   
     13. B(C  22,C  17)                  1.3964         0.610237   
     14. B(C  23,C  21)                  1.3753         0.659559   
     15. B(C  23,C  19)                  1.3998         0.602604   
     16. B(C  24,C  22)                  1.3744         0.661634   
     17. B(C  24,C  19)                  1.3997         0.603013   
     18. B(C  25,C  15)                  1.5112         0.400237   
     19. B(C  25,O   4)                  1.2185         1.050749   
     20. B(C  25,O   3)                  1.3068         0.759763   
     21. B(C  26,C  20)                  1.5129         0.397746   
     22. B(C  26,N   8)                  1.3163         0.733649   
     23. B(C  27,N   8)                  1.3283         0.701964   
     24. B(C  28,C  26)                  1.4066         0.587797   
     25. B(C  28,N   9)                  1.3099         0.751129   
     26. B(C  29,C  27)                  1.4169         0.566075   
     27. B(C  29,N   9)                  1.3423         0.666692   
     28. B(C  29,N  11)                  1.3518         0.643935   
     29. B(C  30,C  27)                  1.4534         0.494992   
     30. B(C  30,N  10)                  1.3715         0.599012   
     31. B(C  30,O   5)                  1.2259         1.022539   
     32. B(C  31,N  12)                  1.3430         0.665078   
     33. B(C  31,N  11)                  1.2992         0.781105   
     34. B(C  31,N  10)                  1.3710         0.600053   
     35. B(H  32,C  13)                  1.1027         0.343635   
     36. B(H  33,C  14)                  1.0910         0.358795   
     37. B(H  34,C  14)                  1.0915         0.358136   
     38. B(H  35,C  15)                  1.0913         0.358347   
     39. B(H  36,C  15)                  1.0934         0.355580   
     40. B(H  37,O   3)                  2.2264         0.004961   
     41. B(H  37,N   6)                  1.0081         0.435805   
     42. B(H  38,C  20)                  1.0929         0.356290   
     43. B(H  39,C  20)                  1.0961         0.352168   
     44. B(H  40,C  21)                  1.0799         0.373700   
     45. B(H  41,C  22)                  1.0801         0.373474   
     46. B(H  42,N   7)                  1.0113         0.430698   
     47. B(H  43,C  23)                  1.0792         0.374691   
     48. B(H  44,C  24)                  1.0803         0.373156   
     49. B(H  45,C  28)                  1.0826         0.370022   
     50. B(H  46,O   1)                  1.6327         0.043931   
     51. B(H  46,O   0)                  1.0060         0.439088   
     52. B(H  47,O   4)                  1.7317         0.030532   
     53. B(H  47,N  10)                  1.0356         0.393875   
     54. B(H  48,O   4)                  2.4007         0.002614   
     55. B(H  48,O   5)                  1.6031         0.048963   
     56. B(H  48,O   3)                  1.0153         0.424406   
     57. B(H  49,N  12)                  1.0045         0.441558   
     58. B(H  50,N  12)                  1.0053         0.440267   
     59. A(C  18,O   0,H  46)          112.1719         0.370635   
     60. A(C  25,O   3,H  48)          113.8777         0.370131   
     61. A(C  13,N   6,H  37)          116.2180         0.338911   
     62. A(C  13,N   6,C  16)          123.0618         0.406194   
     63. A(C  16,N   6,H  37)          119.2682         0.361821   
     64. A(C  19,N   7,H  42)          111.4312         0.353902   
     65. A(C  20,N   7,H  42)          112.7807         0.339774   
     66. A(C  19,N   7,C  20)          119.1100         0.399705   
     67. A(C  26,N   8,C  27)          118.4028         0.451639   
     68. A(C  28,N   9,C  29)          117.8373         0.449348   
     69. A(C  31,N  10,H  47)          119.8516         0.351043   
     70. A(C  30,N  10,H  47)          116.1628         0.350940   
     71. A(C  30,N  10,C  31)          123.5768         0.423292   
     72. A(C  29,N  11,C  31)          117.4771         0.449707   
     73. A(C  31,N  12,H  50)          120.2601         0.364063   
     74. A(H  49,N  12,H  50)          119.9968         0.305087   
     75. A(C  31,N  12,H  49)          117.5117         0.364245   
     76. A(C  14,C  13,H  32)          110.3908         0.322332   
     77. A(C  18,C  13,H  32)          105.5426         0.316830   
     78. A(N   6,C  13,C  14)          111.1907         0.371935   
     79. A(C  14,C  13,C  18)          110.8681         0.358016   
     80. A(N   6,C  13,C  18)          110.6325         0.365264   
     81. A(N   6,C  13,H  32)          108.0304         0.328618   
     82. A(C  15,C  14,H  34)          108.8039         0.324246   
     83. A(H  33,C  14,H  34)          107.2572         0.290424   
     84. A(C  13,C  14,H  33)          109.3135         0.324623   
     85. A(C  13,C  14,C  15)          113.6671         0.364187   
     86. A(C  13,C  14,H  34)          107.5931         0.324525   
     87. A(C  15,C  14,H  33)          109.9827         0.324344   
     88. A(H  35,C  15,H  36)          107.6107         0.290041   
     89. A(C  14,C  15,H  36)          108.9946         0.323865   
     90. A(C  14,C  15,C  25)          114.2806         0.367925   
     91. A(C  25,C  15,H  36)          106.7917         0.327337   
     92. A(C  25,C  15,H  35)          107.8355         0.327755   
     93. A(C  14,C  15,H  35)          111.0471         0.324278   
     94. A(N   6,C  16,C  17)          116.9737         0.412629   
     95. A(O   1,C  16,C  17)          122.4368         0.444731   
     96. A(O   1,C  16,N   6)          120.5840         0.469621   
     97. A(C  21,C  17,C  22)          118.2659         0.431649   
     98. A(C  16,C  17,C  22)          123.9212         0.410906   
     99. A(C  16,C  17,C  21)          117.8126         0.410957   
    100. A(O   0,C  18,O   2)          123.4122         0.493224   
    101. A(O   2,C  18,C  13)          122.2060         0.430624   
    102. A(O   0,C  18,C  13)          114.3581         0.399805   
    103. A(C  23,C  19,C  24)          118.0312         0.429701   
    104. A(N   7,C  19,C  24)          119.6615         0.423423   
    105. A(N   7,C  19,C  23)          122.2748         0.423372   
    106. A(N   7,C  20,H  38)          108.6626         0.332069   
    107. A(N   7,C  20,C  26)          111.6450         0.377130   
    108. A(H  38,C  20,H  39)          107.3731         0.289342   
    109. A(C  26,C  20,H  39)          108.5186         0.326482   
    110. A(N   7,C  20,H  39)          109.8472         0.331430   
    111. A(C  26,C  20,H  38)          110.7016         0.327108   
    112. A(C  17,C  21,H  40)          118.2698         0.354220   
    113. A(C  23,C  21,H  40)          120.4153         0.358884   
    114. A(C  17,C  21,C  23)          121.2959         0.437731   
    115. A(C  17,C  22,C  24)          120.4496         0.437924   
    116. A(C  24,C  22,H  41)          118.5354         0.359040   
    117. A(C  17,C  22,H  41)          121.0128         0.354142   
    118. A(C  21,C  23,H  43)          119.3500         0.359046   
    119. A(C  19,C  23,H  43)          120.2422         0.353582   
    120. A(C  19,C  23,C  21)          120.3861         0.436684   
    121. A(C  19,C  24,C  22)          121.2654         0.436985   
    122. A(C  22,C  24,H  44)          119.6410         0.358987   
    123. A(C  19,C  24,H  44)          119.0456         0.353377   
    124. A(O   4,C  25,C  15)          121.8333         0.438260   
    125. A(O   3,C  25,C  15)          114.3371         0.413545   
    126. A(O   3,C  25,O   4)          123.8209         0.489464   
    127. A(C  20,C  26,C  28)          124.1752         0.397336   
    128. A(N   8,C  26,C  28)          119.9181         0.440249   
    129. A(N   8,C  26,C  20)          115.7336         0.410532   
    130. A(C  29,C  27,C  30)          119.4039         0.410235   
    131. A(N   8,C  27,C  30)          118.8723         0.423491   
    132. A(N   8,C  27,C  29)          121.3493         0.433806   
    133. A(C  26,C  28,H  45)          121.3764         0.351351   
    134. A(N   9,C  28,H  45)          116.1447         0.364040   
    135. A(N   9,C  28,C  26)          122.4789         0.442126   
    136. A(N  11,C  29,C  27)          122.3097         0.427137   
    137. A(N   9,C  29,C  27)          119.3621         0.429806   
    138. A(N   9,C  29,N  11)          118.3213         0.437005   
    139. A(N  10,C  30,C  27)          113.1777         0.411697   
    140. A(O   5,C  30,C  27)          125.9877         0.453217   
    141. A(O   5,C  30,N  10)          120.7812         0.466156   
    142. A(N  11,C  31,N  12)          119.7627         0.452354   
    143. A(N  10,C  31,N  12)          116.2803         0.431302   
    144. A(N  10,C  31,N  11)          123.9418         0.443990   
    145. D(C  14,C  13,N   6,H  37)     -6.9906         0.016496   
    146. D(C  18,C  13,N   6,C  16)    -77.2122         0.016496   
    147. D(C  18,C  13,N   6,H  37)    116.6657         0.016496   
    148. D(H  32,C  13,N   6,C  16)     37.8541         0.016496   
    149. D(C  14,C  13,N   6,C  16)    159.1315         0.016496   
    150. D(C  15,C  14,C  13,N   6)    -88.0012         0.011342   
    151. D(C  15,C  14,C  13,H  32)     31.8843         0.011342   
    152. D(H  33,C  14,C  13,C  18)    -88.2268         0.011342   
    153. D(C  15,C  14,C  13,C  18)    148.4769         0.011342   
    154. D(H  33,C  14,C  13,N   6)     35.2951         0.011342   
    155. D(H  33,C  14,C  13,H  32)    155.1806         0.011342   
    156. D(H  35,C  15,C  14,C  13)    -60.6505         0.011230   
    157. D(C  25,C  15,C  14,H  34)   -178.5421         0.011230   
    158. D(C  25,C  15,C  14,H  33)    -61.3304         0.011230   
    159. D(C  25,C  15,C  14,C  13)     61.5997         0.011230   
    160. D(H  35,C  15,C  14,H  34)     59.2077         0.011230   
    161. D(H  35,C  15,C  14,H  33)    176.4195         0.011230   
    162. D(C  17,C  16,N   6,H  37)     -3.1407         0.034254   
    163. D(C  17,C  16,N   6,C  13)   -168.8603         0.034254   
    164. D(O   1,C  16,N   6,H  37)    176.0303         0.034254   
    165. D(O   1,C  16,N   6,C  13)     10.3107         0.034254   
    166. D(C  22,C  17,C  16,N   6)    -19.6445         0.014627   
    167. D(C  22,C  17,C  16,O   1)    161.2011         0.014627   
    168. D(C  21,C  17,C  16,N   6)    160.1401         0.014627   
    169. D(C  21,C  17,C  16,O   1)    -19.0143         0.014627   
    170. D(O   0,C  18,C  13,H  32)    -57.7963         0.008754   
    171. D(O   0,C  18,C  13,C  14)   -177.3384         0.008754   
    172. D(O   0,C  18,C  13,N   6)     58.8197         0.008754   
    173. D(C  13,C  18,O   0,H  46)     -2.6037         0.041495   
    174. D(O   2,C  18,C  13,N   6)   -122.8928         0.008754   
    175. D(O   2,C  18,O   0,H  46)    179.1323         0.041495   
    176. D(O   2,C  18,C  13,C  14)      0.9491         0.008754   
    177. D(C  24,C  19,N   7,H  42)     12.4713         0.026558   
    178. D(C  24,C  19,N   7,C  20)    146.4722         0.026558   
    179. D(C  23,C  19,N   7,H  42)   -169.6435         0.026558   
    180. D(C  23,C  19,N   7,C  20)    -35.6426         0.026558   
    181. D(H  39,C  20,N   7,C  19)     77.3799         0.017422   
    182. D(H  38,C  20,N   7,H  42)    -32.0001         0.017422   
    183. D(H  38,C  20,N   7,C  19)   -165.4277         0.017422   
    184. D(C  26,C  20,N   7,H  42)     90.3749         0.017422   
    185. D(C  26,C  20,N   7,C  19)    -43.0527         0.017422   
    186. D(H  40,C  21,C  17,C  22)   -177.4821         0.025758   
    187. D(H  40,C  21,C  17,C  16)      2.7209         0.025758   
    188. D(C  23,C  21,C  17,C  22)      4.0997         0.025758   
    189. D(C  23,C  21,C  17,C  16)   -175.6974         0.025758   
    190. D(H  41,C  22,C  17,C  21)    176.0364         0.025720   
    191. D(H  41,C  22,C  17,C  16)     -4.1800         0.025720   
    192. D(C  24,C  22,C  17,C  21)     -3.4129         0.025720   
    193. D(C  24,C  22,C  17,C  16)    176.3708         0.025720   
    194. D(H  43,C  23,C  21,H  40)     -0.1078         0.030352   
    195. D(H  43,C  23,C  21,C  17)    178.2768         0.030352   
    196. D(C  19,C  23,C  21,H  40)   -178.4165         0.030352   
    197. D(C  19,C  23,C  21,C  17)     -0.0319         0.030352   
    198. D(H  43,C  23,C  19,C  24)    177.0573         0.025045   
    199. D(H  43,C  23,C  19,N   7)     -0.8608         0.025045   
    200. D(C  21,C  23,C  19,C  24)     -4.6492         0.025045   
    201. D(C  21,C  23,C  19,N   7)    177.4327         0.025045   
    202. D(C  19,C  24,C  22,C  17)     -1.3216         0.030558   
    203. D(H  44,C  24,C  19,C  23)   -177.1805         0.025081   
    204. D(H  44,C  24,C  19,N   7)      0.7939         0.025081   
    205. D(C  22,C  24,C  19,C  23)      5.3479         0.025081   
    206. D(C  19,C  24,C  22,H  41)    179.2157         0.030558   
    207. D(C  22,C  24,C  19,N   7)   -176.6777         0.025081   
    208. D(H  44,C  24,C  22,H  41)      1.7589         0.030558   
    209. D(H  44,C  24,C  22,C  17)   -178.7783         0.030558   
    210. D(O   4,C  25,C  15,H  35)    -21.5845         0.011888   
    211. D(O   4,C  25,C  15,C  14)   -145.5726         0.011888   
    212. D(O   3,C  25,C  15,H  36)    -85.1362         0.011888   
    213. D(O   3,C  25,C  15,H  35)    159.4554         0.011888   
    214. D(O   3,C  25,C  15,C  14)     35.4673         0.011888   
    215. D(C  15,C  25,O   3,H  48)   -173.6047         0.048616   
    216. D(O   4,C  25,O   3,H  48)      7.4587         0.048616   
    217. D(C  28,C  26,C  20,N   7)    164.9574         0.011747   
    218. D(N   8,C  26,C  20,H  39)   -131.4485         0.011747   
    219. D(N   8,C  26,C  20,H  38)    110.9569         0.011747   
    220. D(N   8,C  26,C  20,N   7)    -10.2411         0.011747   
    221. D(C  28,C  26,N   8,C  27)     -6.4123         0.040688   
    222. D(C  28,C  26,C  20,H  38)    -73.8446         0.011747   
    223. D(C  20,C  26,N   8,C  27)    169.0051         0.040688   
    224. D(C  30,C  27,N   8,C  26)   -172.7449         0.036920   
    225. D(C  29,C  27,N   8,C  26)      0.1861         0.036920   
    226. D(H  45,C  28,C  26,C  20)     11.2711         0.023768   
    227. D(H  45,C  28,C  26,N   8)   -173.7196         0.023768   
    228. D(N   9,C  28,C  26,C  20)   -168.6302         0.023768   
    229. D(N   9,C  28,C  26,N   8)      6.3790         0.023768   
    230. D(H  45,C  28,N   9,C  29)   -179.3748         0.042864   
    231. D(C  26,C  28,N   9,C  29)      0.5314         0.042864   
    232. D(N  11,C  29,C  27,N   8)   -172.3642         0.021969   
    233. D(N   9,C  29,C  27,C  30)    179.5548         0.021969   
    234. D(N   9,C  29,C  27,N   8)      6.6606         0.021969   
    235. D(C  27,C  29,N  11,C  31)      2.3076         0.030598   
    236. D(N   9,C  29,N  11,C  31)   -176.7269         0.030598   
    237. D(C  27,C  29,N   9,C  28)     -6.7101         0.032990   
    238. D(N  11,C  29,C  27,C  30)      0.5300         0.021969   
    239. D(N  11,C  29,N   9,C  28)    172.3536         0.032990   
    240. D(N  10,C  30,C  27,N   8)    170.1679         0.016686   
    241. D(O   5,C  30,C  27,C  29)    179.7526         0.016686   
    242. D(O   5,C  30,C  27,N   8)     -7.1764         0.016686   
    243. D(C  27,C  30,N  10,H  47)   -169.8910         0.028906   
    244. D(C  27,C  30,N  10,C  31)      2.7404         0.028906   
    245. D(O   5,C  30,N  10,H  47)      7.6079         0.028906   
    246. D(N  10,C  30,C  27,C  29)     -2.9031         0.016686   
    247. D(O   5,C  30,N  10,C  31)   -179.7607         0.028906   
    248. D(N  11,C  31,N  12,H  50)   -169.9603         0.036246   
    249. D(N  11,C  31,N  12,H  49)     -6.9267         0.036246   
    250. D(N  10,C  31,N  12,H  50)     11.4017         0.036246   
    251. D(N  10,C  31,N  12,H  49)    174.4354         0.036246   
    252. D(N  12,C  31,N  11,C  29)    178.8096         0.046761   
    253. D(N  10,C  31,N  11,C  29)     -2.6625         0.046761   
    254. D(N  12,C  31,N  10,H  47)     -9.0394         0.029014   
    255. D(N  12,C  31,N  10,C  30)    178.5874         0.029014   
    256. D(N  11,C  31,N  10,H  47)    172.3858         0.029014   
    257. D(N  11,C  31,N  10,C  30)      0.0127         0.029014   
    -----------------------------------------------------------------

Number of atoms                         .... 51
Number of degrees of freedom            .... 257


         *************************************************************
         *                GEOMETRY OPTIMIZATION CYCLE   1            *
         *************************************************************
---------------------------------
CARTESIAN COORDINATES (ANGSTROEM)
---------------------------------
  O     -0.148775   -8.548592   -2.808323
  O     -0.592844   -8.481927   -0.242009
  O      1.279695   -7.362473   -4.014891
  O      2.632481   -5.227504    0.651969
  O      0.963494   -3.798002    1.020595
  O      2.412750   -5.906616    3.159108
  N      1.379673   -7.464451   -0.593503
  N      2.444585  -10.068864    5.151670
  N      1.623322   -7.571338    5.298705
  N     -0.468757   -6.670827    6.874391
  N      0.655733   -4.565016    3.625602
  N     -0.770842   -4.849661    5.480482
  N     -1.090776   -3.115064    4.026959
  C      0.918750   -6.672455   -1.724397
  C      1.884712   -5.528777   -2.027792
  C      1.590459   -4.251698   -1.240413
  C      0.561268   -8.251603    0.136750
  C      1.102545   -8.793567    1.392981
  C      0.714409   -7.572574   -2.977258
  C      1.980213   -9.686148    3.907252
  C      1.665777   -9.737470    6.326789
  C      0.194147   -9.238333    2.355506
  C      2.466365   -8.884458    1.678844
  C      0.617152   -9.676356    3.588610
  C      2.892407   -9.334366    2.905653
  C      1.692868   -4.408697    0.259151
  C      1.136067   -8.321682    6.264191
  C      1.042819   -6.402137    5.053010
  C      0.115525   -7.822494    7.093575
  C     -0.072087   -5.959763    5.807199
  C      1.467107   -5.638254    3.891625
  C     -0.413059   -4.210264    4.407572
  H     -0.080697   -6.276350   -1.478953
  H      2.906543   -5.858701   -1.834744
  H      1.811405   -5.309210   -3.094452
  H      0.593625   -3.871023   -1.469340
  H      2.312395   -3.482287   -1.527506
  H      2.295637   -7.240719   -0.236943
  H      2.291537   -9.877061    7.211865
  H      0.815670  -10.423622    6.415485
  H     -0.858907   -9.206557    2.118287
  H      3.208557   -8.612956    0.942639
  H      3.427338   -9.856756    5.260609
  H     -0.114039   -9.986961    4.319041
  H      3.950250   -9.380724    3.119847
  H     -0.232661   -8.377710    7.955275
  H     -0.509633   -8.578065   -1.869717
  H      0.815076   -4.085050    2.721887
  H      2.629532   -5.407403    1.651173
  H     -1.926779   -2.886873    4.534920
  H     -0.921560   -2.702214    3.126114

----------------------------
CARTESIAN COORDINATES (A.U.)
----------------------------
  NO LB      ZA    FRAG     MASS         X           Y           Z
   0 O     8.0000    0    15.999   -0.281144  -16.154498   -5.306961
   1 O     8.0000    0    15.999   -1.120312  -16.028518   -0.457332
   2 O     8.0000    0    15.999    2.418274  -13.913057   -7.587045
   3 O     8.0000    0    15.999    4.974668   -9.878551    1.232043
   4 O     8.0000    0    15.999    1.820740   -7.177183    1.928646
   5 O     8.0000    0    15.999    4.559437  -11.161887    5.969850
   6 N     7.0000    0    14.007    2.607203  -14.105769   -1.121558
   7 N     7.0000    0    14.007    4.619595  -19.027396    9.735245
   8 N     7.0000    0    14.007    3.067634  -14.307755   10.013102
   9 N     7.0000    0    14.007   -0.885823  -12.606035   12.990717
  10 N     7.0000    0    14.007    1.239155   -8.626629    6.851396
  11 N     7.0000    0    14.007   -1.456679   -9.164531   10.356609
  12 N     7.0000    0    14.007   -2.061267   -5.886618    7.609849
  13 C     6.0000    0    12.011    1.736185  -12.609113   -3.258639
  14 C     6.0000    0    12.011    3.561590  -10.447874   -3.831972
  15 C     6.0000    0    12.011    3.005532   -8.034545   -2.344041
  16 C     6.0000    0    12.011    1.060642  -15.593269    0.258419
  17 C     6.0000    0    12.011    2.083507  -16.617433    2.632353
  18 C     6.0000    0    12.011    1.350037  -14.310090   -5.626203
  19 C     6.0000    0    12.011    3.742061  -18.304167    7.383636
  20 C     6.0000    0    12.011    3.147862  -18.401152   11.955898
  21 C     6.0000    0    12.011    0.366884  -17.457919    4.451261
  22 C     6.0000    0    12.011    4.660754  -16.789192    3.172554
  23 C     6.0000    0    12.011    1.166247  -18.285663    6.781490
  24 C     6.0000    0    12.011    5.465858  -17.639396    5.490888
  25 C     6.0000    0    12.011    3.199057   -8.331230    0.489724
  26 C     6.0000    0    12.011    2.146855  -15.725700   11.837606
  27 C     6.0000    0    12.011    1.970642  -12.098286    9.548805
  28 C     6.0000    0    12.011    0.218310  -14.782371   13.404914
  29 C     6.0000    0    12.011   -0.136225  -11.262320   10.974016
  30 C     6.0000    0    12.011    2.772430  -10.654755    7.354106
  31 C     6.0000    0    12.011   -0.780568   -7.956246    8.329104
  32 H     1.0000    0     1.008   -0.152495  -11.860583   -2.794817
  33 H     1.0000    0     1.008    5.492571  -11.071339   -3.467163
  34 H     1.0000    0     1.008    3.423060  -10.032953   -5.847668
  35 H     1.0000    0     1.008    1.121790   -7.315174   -2.776651
  36 H     1.0000    0     1.008    4.369793   -6.580569   -2.886568
  37 H     1.0000    0     1.008    4.338125  -13.682976   -0.447757
  38 H     1.0000    0     1.008    4.330377  -18.664940   13.628450
  39 H     1.0000    0     1.008    1.541392  -19.697791   12.123510
  40 H     1.0000    0     1.008   -1.623098  -17.397871    4.002983
  41 H     1.0000    0     1.008    6.063293  -16.276128    1.781330
  42 H     1.0000    0     1.008    6.476730  -18.626570    9.941111
  43 H     1.0000    0     1.008   -0.215503  -18.872621    8.161805
  44 H     1.0000    0     1.008    7.464892  -17.726998    5.895656
  45 H     1.0000    0     1.008   -0.439665  -15.831578   15.033292
  46 H     1.0000    0     1.008   -0.963066  -16.210195   -3.533254
  47 H     1.0000    0     1.008    1.540271   -7.719626    5.143620
  48 H     1.0000    0     1.008    4.969095  -10.218510    3.120265
  49 H     1.0000    0     1.008   -3.641085   -5.455400    8.569756
  50 H     1.0000    0     1.008   -1.741496   -5.106445    5.907499

--------------------------------
INTERNAL COORDINATES (ANGSTROEM)
--------------------------------
 O      0   0   0     0.000000000000     0.00000000     0.00000000
 O      1   0   0     2.605303453063     0.00000000     0.00000000
 O      1   2   0     2.214320189191   129.27099223     0.00000000
 O      2   1   3     4.668317215633    95.08938153   358.76801826
 O      4   2   1     2.228200885654    87.78915214   108.17562496
 O      4   2   1     2.606764837841    86.80853078   195.13238373
 N      2   1   3     2.247136942378    73.01573253   343.29166041
 N      6   4   2     4.614717786344   130.51718194    48.27737820
 N      8   6   4     2.633197833755    33.53793718   206.94390177
 N      9   8   6     2.769567168101   125.15255143   160.98667566
 N      6   4   2     2.259340623319    96.28288110   274.49029011
 N     10   9   8     2.313197742029    90.67612593   203.97684247
 N     12  10   9     2.285588050235   177.43378402    61.88143215
 C      7   2   1     1.455551179193    95.15985373    45.20124303
 C     14   7   2     1.527459603155   111.19070827   164.01439324
 C     15  14   7     1.528882270042   113.66708305   271.99875379
 C      2   1   3     1.236317274538    98.47792790   325.15215525
 C     17   2   1     1.471334068727   122.43684371   214.27245697
 C      3   1   2     1.200155591242    29.68861004   349.95193124
 C      8   6   4     1.382276436401    50.15111117   327.70980373
 C      8   6   4     1.448194980826    98.06289160   206.25951051
 C     18  17   2     1.396229762348   117.81257901   340.98568562
 C     18  17   2     1.396418201434   123.92123047   161.20110719
 C     22  18  17     1.375260941471   121.29594383   184.30262088
 C     23  18  17     1.374405779821   120.44964595   176.37076212
 C      5   4   2     1.218496002991    29.15829339   280.55579579
 C      9   8   6     1.316281698225    67.40180326   174.86049235
 C      9   8   6     1.328299482519   163.91390802    60.27063317
 C     10   9   8     1.309871896561    58.15520197    18.17061819
 C     10   9   8     1.342333047655    59.78151631   201.87506194
 C      6   4   2     1.225904263283   125.63975904   286.72188070
 C     12  10   9     1.299219843398   148.11615164     1.97126984
 H     14   7   2     1.102739969530   108.03035389    42.73695353
 H     15  14   7     1.090988185342   109.31353320    35.29507948
 H     15  14   7     1.091488554945   107.59310253   151.45660455
 H     16  15  14     1.091328660427   111.04707960   299.34951021
 H     16  15  14     1.093438181386   108.99457854   180.97046749
 H      7   2   1     1.008058531550   147.43317207   210.09696389
 H     21   8   6     1.092895620625   108.66260000   243.13153423
 H     21   8   6     1.096063051311   109.84715125   125.93910703
 H     22  18  17     1.079909035886   118.26975085     2.72089886
 H     23  18  17     1.080073535782   121.01277065   355.82003335
 H      8   6   4     1.011267628918    82.18581057    94.21691270
 H     24  22  18     1.079187487328   119.34996996   178.27678752
 H     25  23  18     1.080305626560   119.64100116   181.22167917
 H     29  10   9     1.082601378691   116.14465736   177.00536784
 H      1   2   3     1.006015480534    11.64408297   209.85628822
 H     11   6   4     1.035596041771    88.58873112   347.54823384
 H      4   2   1     1.015273692398    93.60828276   195.08639437
 H     13  12  32     1.004488788819    88.12676396   173.85652562
 H     13  12  32     1.005285937836   149.09217943    17.04643248

---------------------------
INTERNAL COORDINATES (A.U.)
---------------------------
 O      0   0   0     0.000000000000     0.00000000     0.00000000
 O      1   0   0     4.923310022048     0.00000000     0.00000000
 O      1   2   0     4.184458730383   129.27099223     0.00000000
 O      2   1   3     8.821841043815    95.08938153   358.76801826
 O      4   2   1     4.210689445247    87.78915214   108.17562496
 O      4   2   1     4.926071639055    86.80853078   195.13238373
 N      2   1   3     4.246473406512    73.01573253   343.29166041
 N      6   4   2     8.720552801525   130.51718194    48.27737820
 N      8   6   4     4.976022762232    33.53793718   206.94390177
 N      9   8   6     5.233723457211   125.15255143   160.98667566
 N      6   4   2     4.269535021317    96.28288110   274.49029011
 N     10   9   8     4.371310226040    90.67612593   203.97684247
 N     12  10   9     4.319135469908   177.43378402    61.88143215
 C      7   2   1     2.750593102580    95.15985373    45.20124303
 C     14   7   2     2.886480330591   111.19070827   164.01439324
 C     15  14   7     2.889168781387   113.66708305   271.99875379
 C      2   1   3     2.336301063513    98.47792790   325.15215525
 C     17   2   1     2.780418441402   122.43684371   214.27245697
 C      3   1   2     2.267965385542    29.68861004   349.95193124
 C      8   6   4     2.612123906171    50.15111117   327.70980373
 C      8   6   4     2.736691902280    98.06289160   206.25951051
 C     18  17   2     2.638491870868   117.81257901   340.98568562
 C     18  17   2     2.638847969133   123.92123047   161.20110719
 C     22  18  17     2.598866542058   121.29594383   184.30262088
 C     23  18  17     2.597250520741   120.44964595   176.37076212
 C      5   4   2     2.302623740931    29.15829339   280.55579579
 C      9   8   6     2.487411924738    67.40180326   174.86049235
 C      9   8   6     2.510122245791   163.91390802    60.27063317
 C     10   9   8     2.475299155021    58.15520197    18.17061819
 C     10   9   8     2.536641840579    59.78151631   201.87506194
 C      6   4   2     2.316623324011   125.63975904   286.72188070
 C     12  10   9     2.455169691779   148.11615164     1.97126984
 H     14   7   2     2.083876539340   108.03035389    42.73695353
 H     15  14   7     2.061668885640   109.31353320    35.29507948
 H     15  14   7     2.062614447155   107.59310253   151.45660455
 H     16  15  14     2.062312290306   111.04707960   299.34951021
 H     16  15  14     2.066298707193   108.99457854   180.97046749
 H      7   2   1     1.904954551592   147.43317207   210.09696389
 H     21   8   6     2.065273415942   108.66260000   243.13153423
 H     21   8   6     2.071258992489   109.84715125   125.93910703
 H     22  18  17     2.040732327371   118.26975085     2.72089886
 H     23  18  17     2.041043187124   121.01277065   355.82003335
 H      8   6   4     1.911018866755    82.18581057    94.21691270
 H     24  22  18     2.039368798205   119.34996996   178.27678752
 H     25  23  18     2.041481775132   119.64100116   181.22167917
 H     29  10   9     2.045820117932   116.14465736   177.00536784
 H      1   2   3     1.901093744695    11.64408297   209.85628822
 H     11   6   4     1.956992904320    88.58873112   347.54823384
 H      4   2   1     1.918589229606    93.60828276   195.08639437
 H     13  12  32     1.898208715463    88.12676396   173.85652562
 H     13  12  32     1.899715108791   149.09217943    17.04643248

---------------------
BASIS SET INFORMATION
---------------------
There are 4 groups of distinct atoms

 Group   1 Type O   : 11s6p2d contracted to 5s3p2d pattern {62111/411/11}
 Group   2 Type N   : 11s6p1d contracted to 5s3p1d pattern {62111/411/1}
 Group   3 Type C   : 11s6p1d contracted to 5s3p1d pattern {62111/411/1}
 Group   4 Type H   : 5s contracted to 3s pattern {311}

Atom   0O    basis set group =>   1
Atom   1O    basis set group =>   1
Atom   2O    basis set group =>   1
Atom   3O    basis set group =>   1
Atom   4O    basis set group =>   1
Atom   5O    basis set group =>   1
Atom   6N    basis set group =>   2
Atom   7N    basis set group =>   2
Atom   8N    basis set group =>   2
Atom   9N    basis set group =>   2
Atom  10N    basis set group =>   2
Atom  11N    basis set group =>   2
Atom  12N    basis set group =>   2
Atom  13C    basis set group =>   3
Atom  14C    basis set group =>   3
Atom  15C    basis set group =>   3
Atom  16C    basis set group =>   3
Atom  17C    basis set group =>   3
Atom  18C    basis set group =>   3
Atom  19C    basis set group =>   3
Atom  20C    basis set group =>   3
Atom  21C    basis set group =>   3
Atom  22C    basis set group =>   3
Atom  23C    basis set group =>   3
Atom  24C    basis set group =>   3
Atom  25C    basis set group =>   3
Atom  26C    basis set group =>   3
Atom  27C    basis set group =>   3
Atom  28C    basis set group =>   3
Atom  29C    basis set group =>   3
Atom  30C    basis set group =>   3
Atom  31C    basis set group =>   3
Atom  32H    basis set group =>   4
Atom  33H    basis set group =>   4
Atom  34H    basis set group =>   4
Atom  35H    basis set group =>   4
Atom  36H    basis set group =>   4
Atom  37H    basis set group =>   4
Atom  38H    basis set group =>   4
Atom  39H    basis set group =>   4
Atom  40H    basis set group =>   4
Atom  41H    basis set group =>   4
Atom  42H    basis set group =>   4
Atom  43H    basis set group =>   4
Atom  44H    basis set group =>   4
Atom  45H    basis set group =>   4
Atom  46H    basis set group =>   4
Atom  47H    basis set group =>   4
Atom  48H    basis set group =>   4
Atom  49H    basis set group =>   4
Atom  50H    basis set group =>   4
---------------------------------
AUXILIARY/J BASIS SET INFORMATION
---------------------------------
There are 4 groups of distinct atoms

 Group   1 Type O   : 8s3p3d contracted to 6s3p3d pattern {311111/111/111}
 Group   2 Type N   : 8s3p3d contracted to 6s3p3d pattern {311111/111/111}
 Group   3 Type C   : 8s3p3d contracted to 6s3p3d pattern {311111/111/111}
 Group   4 Type H   : 5s2p contracted to 3s1p pattern {311/2}

Atom   0O    basis set group =>   1
Atom   1O    basis set group =>   1
Atom   2O    basis set group =>   1
Atom   3O    basis set group =>   1
Atom   4O    basis set group =>   1
Atom   5O    basis set group =>   1
Atom   6N    basis set group =>   2
Atom   7N    basis set group =>   2
Atom   8N    basis set group =>   2
Atom   9N    basis set group =>   2
Atom  10N    basis set group =>   2
Atom  11N    basis set group =>   2
Atom  12N    basis set group =>   2
Atom  13C    basis set group =>   3
Atom  14C    basis set group =>   3
Atom  15C    basis set group =>   3
Atom  16C    basis set group =>   3
Atom  17C    basis set group =>   3
Atom  18C    basis set group =>   3
Atom  19C    basis set group =>   3
Atom  20C    basis set group =>   3
Atom  21C    basis set group =>   3
Atom  22C    basis set group =>   3
Atom  23C    basis set group =>   3
Atom  24C    basis set group =>   3
Atom  25C    basis set group =>   3
Atom  26C    basis set group =>   3
Atom  27C    basis set group =>   3
Atom  28C    basis set group =>   3
Atom  29C    basis set group =>   3
Atom  30C    basis set group =>   3
Atom  31C    basis set group =>   3
Atom  32H    basis set group =>   4
Atom  33H    basis set group =>   4
Atom  34H    basis set group =>   4
Atom  35H    basis set group =>   4
Atom  36H    basis set group =>   4
Atom  37H    basis set group =>   4
Atom  38H    basis set group =>   4
Atom  39H    basis set group =>   4
Atom  40H    basis set group =>   4
Atom  41H    basis set group =>   4
Atom  42H    basis set group =>   4
Atom  43H    basis set group =>   4
Atom  44H    basis set group =>   4
Atom  45H    basis set group =>   4
Atom  46H    basis set group =>   4
Atom  47H    basis set group =>   4
Atom  48H    basis set group =>   4
Atom  49H    basis set group =>   4
Atom  50H    basis set group =>   4


           ************************************************************
           *        Program running with 16 parallel MPI-processes    *
           *              working on a common directory               *
           ************************************************************
------------------------------------------------------------------------------
                             ORCA STARTUP CALCULATIONS
                           -- RI-GTO INTEGRALS CHOSEN --
------------------------------------------------------------------------------
------------------------------------------------------------------------------
                   ___                                                        
                  /   \      - P O W E R E D   B Y -                         
                 /     \                                                     
                 |  |  |   _    _      __       _____    __    __             
                 |  |  |  | |  | |    /  \     |  _  \  |  |  /  |          
                  \  \/   | |  | |   /    \    | | | |  |  | /  /          
                 / \  \   | |__| |  /  /\  \   | |_| |  |  |/  /          
                |  |  |   |  __  | /  /__\  \  |    /   |      \           
                |  |  |   | |  | | |   __   |  |    \   |  |\   \          
                \     /   | |  | | |  |  |  |  | |\  \  |  | \   \       
                 \___/    |_|  |_| |__|  |__|  |_| \__\ |__|  \__/        
                                                                              
                      - O R C A' S   B I G   F R I E N D -                    
                                      &                                       
                       - I N T E G R A L  F E E D E R -                       
                                                                              
 v1 FN, 2020, v2 2021, v3 2022-2024                                           
------------------------------------------------------------------------------


----------------------
SHARK INTEGRAL PACKAGE
----------------------

Number of atoms                             ...     51
Number of basis functions                   ...    695
Number of shells                            ...    351
Maximum angular momentum                    ...      2
Integral batch strategy                     ... SHARK/LIBINT Hybrid
RI-J (if used) integral strategy            ... SPLIT-RIJ (Revised 2003 algorithm where possible)
Printlevel                                  ...      1
Contraction scheme used                     ... SEGMENTED contraction
Prescreening option                         ... SCHWARTZ
   Thresh                                   ... 2.500e-11
   Tcut                                     ... 2.500e-12
   Tpresel                                  ... 2.500e-12 
Coulomb Range Separation                    ... NOT USED
Exchange Range Separation                   ... NOT USED
Multipole approximations                    ... NOT USED
Finite Nucleus Model                        ... NOT USED
CABS basis                                  ... NOT available
Auxiliary Coulomb fitting basis             ... AVAILABLE
   # of basis functions in Aux-J            ...   1074
   # of shells in Aux-J                     ...    460
   Maximum angular momentum in Aux-J        ...      2
Auxiliary J/K fitting basis                 ... NOT available
Auxiliary Correlation fitting basis         ... NOT available
Auxiliary 'external' fitting basis          ... NOT available

Checking pre-screening integrals            ... done (  0.0 sec) Dimension = 351
Check shell pair data                       ... done (  0.0 sec)
Shell pair information
Shell pair cut-off parameter TPreSel        ...   2.5e-12
Total number of shell pairs                 ...     61776
Shell pairs after pre-screening             ...     41396
Total number of primitive shell pairs       ...    230264
Primitive shell pairs kept                  ...     92602
          la=0 lb=0:  14544 shell pairs
          la=1 lb=0:  14959 shell pairs
          la=1 lb=1:   3779 shell pairs
          la=2 lb=0:   5007 shell pairs
          la=2 lb=1:   2650 shell pairs
          la=2 lb=2:    457 shell pairs

Calculating one electron integrals          ... done (  0.0 sec)
Calculating RI/J V-Matrix + Cholesky decomp.... done (  0.0 sec)
Calculating Nuclear repulsion               ... done (  0.0 sec) ENN=   3395.828726671315 Eh

Diagonalization of the overlap matrix:
Smallest eigenvalue                        ... 7.055e-06
Time for diagonalization                   ...    0.055 sec
Threshold for overlap eigenvalues          ... 1.000e-07
Number of eigenvalues below threshold      ... 0
Time for construction of square roots      ...    0.035 sec
Total time needed                          ...    0.098 sec

-------------------
DFT GRID GENERATION
-------------------

General Integration Accuracy     IntAcc      ... 4.959
Radial Grid Type                 RadialGrid  ... OptM3 with GC (2021)
Angular Grid (max. ang.)         AngularGrid ... 6 (Lebedev-590)
Angular grid pruning method      GridPruning ... 4 (adaptive)
Weight generation scheme         WeightScheme... mBecke (2022)
Basis function cutoff            BFCut       ... 1.0000e-11
Integration weight cutoff        WCut        ... 1.0000e-14
Partially contracted basis set               ... off
Rotationally invariant grid construction     ... off
Angular grids for H and He will be reduced by one unit
Diffuse basis detected: some atoms will have their outermost
                        angular grid increased by 1.

Total number of grid points                  ...   615575
Total number of batches                      ...     9645
Average number of points per batch           ...       63
Average number of grid points per atom       ...    12070
Initializing property integral containers    ... done (  0.0 sec)

SHARK setup successfully completed in   5.7 seconds

Maximum memory used throughout the entire STARTUP-calculation: 156.6 MB


           ************************************************************
           *        Program running with 16 parallel MPI-processes    *
           *              working on a common directory               *
           ************************************************************
-------------------------------------------------------------------------------
                                 ORCA GUESS
                   Start orbitals & Density for SCF / CASSCF
-------------------------------------------------------------------------------

------------
SCF SETTINGS
------------
Hamiltonian:
 Density Functional     Method          .... DFT(GTOs)
 Exchange Functional    Exchange        .... B973C
 Correlation Functional Correlation     .... B973C
 Gradients option       PostSCFGGA      .... off
 RI-approximation to the Coulomb term is turned on
   Number of AuxJ basis functions       .... 1074


General Settings:
 Integral files         IntName         .... m1_00_Vitamin_B9-GFN2_0001-B97-3C-TZ
 Hartree-Fock type      HFTyp           .... RHF
 Total Charge           Charge          ....    0
 Multiplicity           Mult            ....    1
 Number of Electrons    NEL             ....  230
 Basis Dimension        Dim             ....  695
 Nuclear Repulsion      ENuc            ....   3395.8287266713 Eh

Convergence Acceleration:
 AO-DIIS                CNVDIIS         .... on
   Start iteration      DIISMaxIt       ....    12
   Startup error        DIISStart       ....  0.200000
   # of expansion vecs  DIISMaxEq       ....     5
   Bias factor          DIISBfac        ....   1.050
   Max. coefficient     DIISMaxC        ....  10.000
 MO-DIIS                CNVKDIIS        .... off
 Trust-Rad. Augm. Hess. CNVTRAH         .... off
 SOSCF                  CNVSOSCF        .... on
   Start iteration      SOSCFMaxIt      ....   150
   Startup grad/error   SOSCFStart      ....  0.003300
   Hessian update       SOSCFHessUp     .... L-BFGS
 Level Shifting         CNVShift        .... on
   Level shift para.    LevelShift      ....    0.2500
   Turn off err/grad.   ShiftErr        ....    0.0010
 Zerner damping         CNVZerner       .... off
 Static damping         CNVDamp         .... on
   Fraction old density DampFac         ....    0.7000
   Max. Damping (<1)    DampMax         ....    0.9800
   Min. Damping (>=0)   DampMin         ....    0.0000
   Turn off err/grad.   DampErr         ....    0.1000

SCF Procedure:
 Maximum # iterations   MaxIter         ....   800
 SCF integral mode      SCFMode         .... Direct
   Integral package                     .... SHARK and LIBINT hybrid scheme
 Reset frequency        DirectResetFreq ....    20
 Integral Threshold     Thresh          ....  2.500e-11 Eh
 Primitive CutOff       TCut            ....  2.500e-12 Eh

Convergence Tolerance:
 Convergence Check Mode ConvCheckMode   .... Total+1el-Energy
 Convergence forced     ConvForced      .... 0
 Energy Change          TolE            ....  1.000e-08 Eh
 1-El. energy change                    ....  1.000e-05 Eh
 Orbital Gradient       TolG            ....  1.000e-05
 Orbital Rotation angle TolX            ....  1.000e-05
 DIIS Error             TolErr          ....  5.000e-07

--------------------------------
INITIAL GUESS: MINIMAL BASIS EHT
--------------------------------
The minimal basis has 179 functions
EHT matrix was diagonalized
Basis set overlap was calculated now projecting the orbitals
Using GuessMode=FMatrix for the initial guess
C*T matrix was formed
Effective Fockian was calculated
Effective Fockian was diagonalized
Initial density was built
                      ------------------
                      INITIAL GUESS DONE
                      ------------------
             **** ENERGY FILE WAS UPDATED (m1_00_Vitamin_B9-GFN2_0001-B97-3C-TZ.en.tmp) ****
Finished Guess after   0.6 sec
Maximum memory used throughout the entire GUESS-calculation: 73.2 MB


           ************************************************************
           *        Program running with 16 parallel MPI-processes    *
           *              working on a common directory               *
           ************************************************************

-------------------------------------------------------------------------------------------
                                      ORCA LEAN-SCF
                              memory conserving SCF solver
-------------------------------------------------------------------------------------------

----------------------------------------D-I-I-S--------------------------------------------
Iteration    Energy (Eh)           Delta-E    RMSDP     MaxDP     DIISErr   Damp  Time(sec)
-------------------------------------------------------------------------------------------
               ***  Starting incremental Fock matrix formation  ***
    1    -1563.4377921693994722     0.00e+00  5.19e-03  5.69e-01  4.72e-01  0.700   1.9
Warning: op=0 Small HOMO/LUMO gap (   0.034) - skipping pre-diagonalization
         Will do a full diagonalization
    2    -1565.5784145527813962    -2.14e+00  3.89e-03  3.71e-01  3.34e-01  0.700   2.1
    3    -1566.6417238374042427    -1.06e+00  2.26e-03  9.30e-02  2.43e-01  0.700   1.9
                               ***Turning on AO-DIIS***
    4    -1567.3844836680600565    -7.43e-01  1.78e-03  1.63e-01  1.72e-01  0.700   1.9
    5    -1567.9081648963301632    -5.24e-01  1.24e-03  1.03e-01  1.17e-01  0.700   1.9
    6    -1568.2773471663767850    -3.69e-01  8.29e-04  4.70e-02  8.04e-02  0.700   1.9
    7    -1568.5385850086267965    -2.61e-01  1.90e-03  9.30e-02  5.61e-02  0.000   1.9
    8    -1569.1428693707885031    -6.04e-01  3.36e-04  4.11e-02  2.38e-02  0.000   1.9
    9    -1569.1476896291351295    -4.82e-03  1.17e-04  1.08e-02  1.01e-02  0.000   1.9
   10    -1569.1479436781719414    -2.54e-04  5.10e-05  6.71e-03  6.00e-03  0.000   1.8
                              *** Initializing SOSCF ***
---------------------------------------S-O-S-C-F--------------------------------------
Iteration    Energy (Eh)           Delta-E    RMSDP     MaxDP     MaxGrad    Time(sec)
--------------------------------------------------------------------------------------
   11    -1569.1482237798172719    -2.80e-04  2.08e-05  2.67e-03  1.13e-03     2.0
               *** Restarting incremental Fock matrix formation ***
   12    -1569.1482386043689985    -1.48e-05  2.78e-05  3.01e-03  1.81e-04     2.0
   13    -1569.1482334630863988     5.14e-06  1.36e-05  1.56e-03  4.31e-04     1.7
   14    -1569.1482405018768986    -7.04e-06  8.27e-06  7.73e-04  4.54e-05     1.7
   15    -1569.1482401665434736     3.35e-07  3.79e-06  2.69e-04  1.05e-04     1.6
   16    -1569.1482405724618729    -4.06e-07  1.03e-05  8.99e-04  9.03e-06     1.6
   17    -1569.1482405686620041     3.80e-09  1.69e-06  1.68e-04  2.28e-05     1.6
                 **** Energy Check signals convergence ****

               *****************************************************
               *                     SUCCESS                       *
               *           SCF CONVERGED AFTER  17 CYCLES          *
               *****************************************************

             **** ENERGY FILE WAS UPDATED (m1_00_Vitamin_B9-GFN2_0001-B97-3C-TZ.en.tmp) ****

----------------
TOTAL SCF ENERGY
----------------

Total Energy       :      -1569.14824056866200 Eh          -42698.69439 eV

Components:
Nuclear Repulsion  :       3395.82872667131505 Eh           92405.19744 eV
Electronic Energy  :      -4964.97696723997797 Eh         -135103.89183 eV
One Electron Energy:      -8897.30401761678513 Eh         -242107.95085 eV
Two Electron Energy:       3932.32705037680762 Eh          107004.05902 eV

Virial components:
Potential Energy   :      -3133.03486618973693 Eh          -85254.21295 eV
Kinetic Energy     :       1563.88662562107515 Eh           42555.51856 eV
Virial Ratio       :          2.00336444781954

DFT components:
N(Alpha)           :      114.999974942242 electrons
N(Beta)            :      114.999974942242 electrons
N(Total)           :      229.999949884484 electrons
E(XC)              :     -209.224515089972 Eh       

---------------
SCF CONVERGENCE
---------------

  Last Energy change         ...   -3.7999e-09  Tolerance :   1.0000e-08
  Last MAX-Density change    ...    1.6829e-04  Tolerance :   1.0000e-07
  Last RMS-Density change    ...    1.6921e-06  Tolerance :   5.0000e-09
  Last DIIS Error            ...    1.1270e-03  Tolerance :   5.0000e-07
  Last Orbital Gradient      ...    2.2814e-05  Tolerance :   1.0000e-05
  Last Orbital Rotation      ...    4.1356e-05  Tolerance :   1.0000e-05


----------------
ORBITAL ENERGIES
----------------

  NO   OCC          E(Eh)            E(eV) 
   0   2.0000     -18.798202      -511.5251 
   1   2.0000     -18.761716      -510.5322 
   2   2.0000     -18.756172      -510.3814 
   3   2.0000     -18.751921      -510.2657 
   4   2.0000     -18.724783      -509.5272 
   5   2.0000     -18.713699      -509.2256 
   6   2.0000     -14.058852      -382.5608 
   7   2.0000     -14.043879      -382.1534 
   8   2.0000     -14.026841      -381.6898 
   9   2.0000     -14.018568      -381.4646 
  10   2.0000     -14.014821      -381.3627 
  11   2.0000     -14.007965      -381.1761 
  12   2.0000     -13.990530      -380.7017 
  13   2.0000     -10.039955      -273.2011 
  14   2.0000     -10.032241      -272.9912 
  15   2.0000     -10.024655      -272.7847 
  16   2.0000     -10.000322      -272.1226 
  17   2.0000      -9.996605      -272.0215 
  18   2.0000      -9.982434      -271.6358 
  19   2.0000      -9.955542      -270.9041 
  20   2.0000      -9.955424      -270.9008 
  21   2.0000      -9.953836      -270.8577 
  22   2.0000      -9.952853      -270.8309 
  23   2.0000      -9.952610      -270.8243 
  24   2.0000      -9.944191      -270.5952 
  25   2.0000      -9.922075      -269.9934 
  26   2.0000      -9.910311      -269.6733 
  27   2.0000      -9.907579      -269.5989 
  28   2.0000      -9.902195      -269.4524 
  29   2.0000      -9.900313      -269.4012 
  30   2.0000      -9.897921      -269.3361 
  31   2.0000      -9.896171      -269.2885 
  32   2.0000      -1.045417       -28.4472 
  33   2.0000      -1.006389       -27.3852 
  34   2.0000      -1.005020       -27.3480 
  35   2.0000      -0.972164       -26.4539 
  36   2.0000      -0.962395       -26.1881 
  37   2.0000      -0.955345       -25.9963 
  38   2.0000      -0.932798       -25.3827 
  39   2.0000      -0.925118       -25.1737 
  40   2.0000      -0.891168       -24.2499 
  41   2.0000      -0.869024       -23.6473 
  42   2.0000      -0.867388       -23.6028 
  43   2.0000      -0.863573       -23.4990 
  44   2.0000      -0.838166       -22.8076 
  45   2.0000      -0.791787       -21.5456 
  46   2.0000      -0.753221       -20.4962 
  47   2.0000      -0.743054       -20.2195 
  48   2.0000      -0.707634       -19.2557 
  49   2.0000      -0.695708       -18.9312 
  50   2.0000      -0.680743       -18.5240 
  51   2.0000      -0.667435       -18.1618 
  52   2.0000      -0.656225       -17.8568 
  53   2.0000      -0.628983       -17.1155 
  54   2.0000      -0.608821       -16.5669 
  55   2.0000      -0.597434       -16.2570 
  56   2.0000      -0.582503       -15.8507 
  57   2.0000      -0.573046       -15.5934 
  58   2.0000      -0.566098       -15.4043 
  59   2.0000      -0.561775       -15.2867 
  60   2.0000      -0.550562       -14.9815 
  61   2.0000      -0.544619       -14.8198 
  62   2.0000      -0.541360       -14.7312 
  63   2.0000      -0.520462       -14.1625 
  64   2.0000      -0.504509       -13.7284 
  65   2.0000      -0.499448       -13.5907 
  66   2.0000      -0.492449       -13.4002 
  67   2.0000      -0.486473       -13.2376 
  68   2.0000      -0.482888       -13.1400 
  69   2.0000      -0.478035       -13.0080 
  70   2.0000      -0.461578       -12.5602 
  71   2.0000      -0.455280       -12.3888 
  72   2.0000      -0.453219       -12.3327 
  73   2.0000      -0.448952       -12.2166 
  74   2.0000      -0.442943       -12.0531 
  75   2.0000      -0.430701       -11.7200 
  76   2.0000      -0.428450       -11.6587 
  77   2.0000      -0.422289       -11.4911 
  78   2.0000      -0.420508       -11.4426 
  79   2.0000      -0.407352       -11.0846 
  80   2.0000      -0.402048       -10.9403 
  81   2.0000      -0.397357       -10.8126 
  82   2.0000      -0.391623       -10.6566 
  83   2.0000      -0.388945       -10.5837 
  84   2.0000      -0.386356       -10.5133 
  85   2.0000      -0.385984       -10.5031 
  86   2.0000      -0.382164       -10.3992 
  87   2.0000      -0.378377       -10.2962 
  88   2.0000      -0.373229       -10.1561 
  89   2.0000      -0.366784        -9.9807 
  90   2.0000      -0.359940        -9.7945 
  91   2.0000      -0.355219        -9.6660 
  92   2.0000      -0.346434        -9.4269 
  93   2.0000      -0.343202        -9.3390 
  94   2.0000      -0.337210        -9.1760 
  95   2.0000      -0.326825        -8.8934 
  96   2.0000      -0.317056        -8.6275 
  97   2.0000      -0.311602        -8.4791 
  98   2.0000      -0.310891        -8.4598 
  99   2.0000      -0.301470        -8.2034 
 100   2.0000      -0.290441        -7.9033 
 101   2.0000      -0.287012        -7.8100 
 102   2.0000      -0.276828        -7.5329 
 103   2.0000      -0.274276        -7.4634 
 104   2.0000      -0.267995        -7.2925 
 105   2.0000      -0.261818        -7.1244 
 106   2.0000      -0.256671        -6.9844 
 107   2.0000      -0.254258        -6.9187 
 108   2.0000      -0.249566        -6.7910 
 109   2.0000      -0.234385        -6.3779 
 110   2.0000      -0.232669        -6.3312 
 111   2.0000      -0.223371        -6.0782 
 112   2.0000      -0.218897        -5.9565 
 113   2.0000      -0.210492        -5.7278 
 114   2.0000      -0.186708        -5.0806 
 115   0.0000      -0.113163        -3.0793 
 116   0.0000      -0.078179        -2.1274 
 117   0.0000      -0.063527        -1.7287 
 118   0.0000      -0.051029        -1.3886 
 119   0.0000      -0.039637        -1.0786 
 120   0.0000      -0.030570        -0.8319 
 121   0.0000      -0.014681        -0.3995 
 122   0.0000       0.001062         0.0289 
 123   0.0000       0.002935         0.0799 
 124   0.0000       0.009780         0.2661 
 125   0.0000       0.015494         0.4216 
*Only the first 10 virtual orbitals were printed.

                    ********************************
                    * MULLIKEN POPULATION ANALYSIS *
                    ********************************

-----------------------
MULLIKEN ATOMIC CHARGES
-----------------------
   0 O :   -0.460007
   1 O :   -0.557127
   2 O :   -0.372260
   3 O :   -0.487108
   4 O :   -0.514263
   5 O :   -0.511253
   6 N :   -0.441563
   7 N :   -0.309873
   8 N :   -0.002235
   9 N :   -0.052460
  10 N :   -0.383919
  11 N :   -0.168847
  12 N :   -0.663905
  13 C :   -0.104940
  14 C :   -0.329706
  15 C :   -0.336896
  16 C :    0.307904
  17 C :   -0.040030
  18 C :    0.373111
  19 C :    0.160301
  20 C :   -0.475805
  21 C :   -0.197421
  22 C :   -0.058508
  23 C :   -0.126324
  24 C :   -0.239189
  25 C :    0.477218
  26 C :    0.126146
  27 C :    0.073717
  28 C :   -0.161778
  29 C :   -0.107505
  30 C :    0.284299
  31 C :    0.403221
  32 H :    0.193472
  33 H :    0.167573
  34 H :    0.230499
  35 H :    0.196121
  36 H :    0.198632
  37 H :    0.346372
  38 H :    0.209062
  39 H :    0.222001
  40 H :    0.194515
  41 H :    0.203377
  42 H :    0.323214
  43 H :    0.163854
  44 H :    0.160892
  45 H :    0.172696
  46 H :    0.402990
  47 H :    0.369095
  48 H :    0.409953
  49 H :    0.369294
  50 H :    0.363393
Sum of atomic charges:   -0.0000000

--------------------------------
MULLIKEN REDUCED ORBITAL CHARGES
--------------------------------
  0 O s       :     3.759692  s :     3.759692
      pz      :     1.570147  p :     4.664492
      px      :     1.527251
      py      :     1.567095
      dz2     :     0.007279  d :     0.035823
      dxz     :     0.008488
      dyz     :     0.007389
      dx2y2   :     0.002243
      dxy     :     0.010423

  1 O s       :     3.857725  s :     3.857725
      pz      :     1.682996  p :     4.654646
      px      :     1.358324
      py      :     1.613327
      dz2     :     0.013415  d :     0.044755
      dxz     :     0.006243
      dyz     :     0.007308
      dx2y2   :     0.012227
      dxy     :     0.005562

  2 O s       :     3.840583  s :     3.840583
      pz      :     1.401477  p :     4.500440
      px      :     1.468454
      py      :     1.630510
      dz2     :     0.006564  d :     0.031237
      dxz     :     0.011582
      dyz     :     0.006868
      dx2y2   :     0.004198
      dxy     :     0.002025

  3 O s       :     3.753229  s :     3.753229
      pz      :     1.519741  p :     4.706450
      px      :     1.590858
      py      :     1.595851
      dz2     :     0.003548  d :     0.027429
      dxz     :     0.002884
      dyz     :     0.005561
      dx2y2   :     0.002559
      dxy     :     0.012877

  4 O s       :     3.834173  s :     3.834173
      pz      :     1.606378  p :     4.648486
      px      :     1.525381
      py      :     1.516727
      dz2     :     0.004594  d :     0.031605
      dxz     :     0.007360
      dyz     :     0.006844
      dx2y2   :     0.004238
      dxy     :     0.008570

  5 O s       :     3.854650  s :     3.854650
      pz      :     1.509867  p :     4.633183
      px      :     1.424933
      py      :     1.698382
      dz2     :     0.002778  d :     0.023420
      dxz     :     0.007764
      dyz     :     0.004060
      dx2y2   :     0.004415
      dxy     :     0.004403

  6 N s       :     3.372795  s :     3.372795
      pz      :     1.353364  p :     4.027969
      px      :     1.243002
      py      :     1.431603
      dz2     :     0.007784  d :     0.040799
      dxz     :     0.009948
      dyz     :     0.007716
      dx2y2   :     0.008445
      dxy     :     0.006906

  7 N s       :     3.365970  s :     3.365970
      pz      :     1.072790  p :     3.900206
      px      :     1.130281
      py      :     1.697134
      dz2     :     0.012744  d :     0.043697
      dxz     :     0.009695
      dyz     :     0.009158
      dx2y2   :     0.007186
      dxy     :     0.004913

  8 N s       :     3.473469  s :     3.473469
      pz      :     1.157549  p :     3.479648
      px      :     1.289059
      py      :     1.033040
      dz2     :     0.010641  d :     0.049118
      dxz     :     0.008146
      dyz     :     0.008929
      dx2y2   :     0.008830
      dxy     :     0.012572

  9 N s       :     3.502228  s :     3.502228
      pz      :     1.175651  p :     3.503737
      px      :     1.283245
      py      :     1.044841
      dz2     :     0.010674  d :     0.046495
      dxz     :     0.007110
      dyz     :     0.009472
      dx2y2   :     0.007967
      dxy     :     0.011271

 10 N s       :     3.340304  s :     3.340304
      pz      :     1.336870  p :     4.003549
      px      :     1.296709
      py      :     1.369970
[...]
114:   1458.81   0.002957   14.94  0.000632  (-0.001251  0.022831 -0.010472)
115:   1471.48   0.030820  155.75  0.006536  (-0.047053 -0.053806 -0.037777)
116:   1476.22   0.009011   45.54  0.001905  ( 0.024814  0.033460 -0.013025)
117:   1487.00   0.007939   40.12  0.001666  ( 0.015054 -0.037097  0.007955)
118:   1492.97   0.022124  111.81  0.004624  ( 0.023733  0.040472 -0.049226)
119:   1497.84   0.017319   87.52  0.003608  ( 0.025229 -0.053976  0.007637)
120:   1518.46   0.005246   26.51  0.001078  ( 0.017110 -0.017920 -0.021548)
121:   1522.51   0.003786   19.13  0.000776  (-0.008415 -0.012113  0.023633)
122:   1533.24   0.025919  130.98  0.005275  (-0.000336 -0.053234  0.049410)
123:   1548.23   0.016399   82.87  0.003305  (-0.013491 -0.012886  0.054381)
124:   1555.78   0.022482  113.62  0.004510  ( 0.034715  0.057440 -0.002256)
125:   1585.60   0.026707  134.97  0.005256  ( 0.002436 -0.060823  0.039382)
126:   1604.45   0.027234  137.63  0.005297  ( 0.029602 -0.007728  0.066038)
127:   1632.54   0.031825  160.83  0.006083  (-0.054004 -0.055679 -0.008174)
128:   1636.80   0.075319  380.63  0.014360  (-0.037066  0.011139 -0.113411)
129:   1650.27   0.009548   48.25  0.001806  (-0.020581 -0.025560  0.026994)
130:   1678.24   0.117309  592.83  0.021813  ( 0.060323 -0.123458  0.054152)
131:   1693.75   0.007443   37.61  0.001371  (-0.033921  0.000281  0.014852)
132:   1719.42   0.149674  756.39  0.027165  (-0.104190  0.057663  0.113948)
133:   1796.59   0.078547  396.94  0.013643  (-0.047041 -0.024572  0.104052)
134:   2858.64   0.289133  1461.16  0.031563  (-0.016719 -0.032919  0.173782)
135:   2958.93   0.002527   12.77  0.000266  ( 0.012180 -0.008960  0.006153)
136:   2996.77   0.002322   11.73  0.000242  ( 0.001947  0.015425 -0.000238)
137:   3003.48   0.008733   44.13  0.000907  ( 0.005376  0.014164 -0.026035)
138:   3033.46   0.002069   10.46  0.000213  (-0.012239 -0.001001  0.007877)
139:   3038.16   0.002322   11.73  0.000239  (-0.011780  0.000776 -0.009957)
140:   3064.17   0.002050   10.36  0.000209  ( 0.014025 -0.000880 -0.003358)
141:   3081.48   0.008949   45.23  0.000906  (-0.004994 -0.019436  0.022441)
142:   3087.20   0.002890   14.60  0.000292  (-0.007610  0.010372 -0.011253)
143:   3093.58   0.185297  936.41  0.018692  (-0.010908 -0.011474  0.135798)
144:   3122.79   0.002732   13.81  0.000273  ( 0.009971 -0.005046  0.012171)
145:   3139.21   0.003559   17.99  0.000354  ( 0.015763  0.000297 -0.010258)
146:   3146.08   0.001063    5.37  0.000105  ( 0.002083  0.001547 -0.009935)
147:   3161.93   0.000846    4.27  0.000083  ( 0.007191  0.002889 -0.004836)
148:   3180.35   0.225974  1141.98  0.022173  ( 0.025474  0.036182 -0.142180)
149:   3543.23   0.019092   96.49  0.001682  (-0.023172  0.029349 -0.016829)
150:   3544.06   0.002198   11.11  0.000194  (-0.011453  0.000797 -0.007859)
151:   3564.37   0.011986   60.57  0.001049  ( 0.016676  0.027608  0.003011)
152:   3662.26   0.009639   48.71  0.000821  (-0.019090 -0.000204  0.021374)

* The epsilon (eps) is given for a Dirac delta lineshape.
** The dipole moment derivative (T) already includes vibrational overlap.

The first frequency considered to be a vibration is 6
The total number of vibrations considered is 147


--------------------------
THERMOCHEMISTRY AT 298.15K
--------------------------

Temperature         ...   298.15 K
Pressure            ...     1.00 atm
Total Mass          ...   441.40 AMU
Quasi RRHO          ...     True
Cut-Off Frequency   ...     1.00 cm^-1

Throughout the following assumptions are being made:
  (1) The electronic state is orbitally nondegenerate
  (2) There are no thermally accessible electronically excited states
  (3) Hindered rotations indicated by low frequency modes are not
      treated as such but are treated as vibrations and this may
      cause some error
  (4) All equations used are the standard statistical mechanics
      equations for an ideal gas
  (5) All vibrations are strictly harmonic

freq.      18.78  E(vib)   ...       0.57 
freq.      34.60  E(vib)   ...       0.54 
freq.      42.58  E(vib)   ...       0.53 
freq.      56.05  E(vib)   ...       0.52 
freq.      63.24  E(vib)   ...       0.51 
freq.      71.94  E(vib)   ...       0.50 
freq.      76.14  E(vib)   ...       0.49 
freq.      83.87  E(vib)   ...       0.48 
freq.      90.07  E(vib)   ...       0.47 
freq.     105.45  E(vib)   ...       0.45 
freq.     124.38  E(vib)   ...       0.43 
freq.     130.26  E(vib)   ...       0.43 
freq.     150.07  E(vib)   ...       0.40 
freq.     153.26  E(vib)   ...       0.40 
freq.     169.32  E(vib)   ...       0.38 
freq.     177.71  E(vib)   ...       0.37 
freq.     184.17  E(vib)   ...       0.37 
freq.     204.53  E(vib)   ...       0.35 
freq.     230.40  E(vib)   ...       0.32 
freq.     238.26  E(vib)   ...       0.32 
freq.     242.19  E(vib)   ...       0.31 
freq.     277.11  E(vib)   ...       0.28 
freq.     286.64  E(vib)   ...       0.27 
freq.     307.55  E(vib)   ...       0.26 
freq.     335.05  E(vib)   ...       0.24 
freq.     351.46  E(vib)   ...       0.23 
freq.     365.54  E(vib)   ...       0.22 
freq.     367.90  E(vib)   ...       0.21 
freq.     385.57  E(vib)   ...       0.20 
freq.     396.58  E(vib)   ...       0.20 
freq.     399.55  E(vib)   ...       0.19 
freq.     409.36  E(vib)   ...       0.19 
freq.     431.51  E(vib)   ...       0.18 
freq.     444.79  E(vib)   ...       0.17 
freq.     476.20  E(vib)   ...       0.15 
freq.     486.33  E(vib)   ...       0.15 
freq.     493.07  E(vib)   ...       0.14 
freq.     500.68  E(vib)   ...       0.14 
freq.     513.77  E(vib)   ...       0.13 
freq.     521.51  E(vib)   ...       0.13 
freq.     539.18  E(vib)   ...       0.12 
freq.     551.62  E(vib)   ...       0.12 
freq.     555.70  E(vib)   ...       0.12 
freq.     581.74  E(vib)   ...       0.11 
freq.     590.72  E(vib)   ...       0.10 
freq.     604.06  E(vib)   ...       0.10 
freq.     634.44  E(vib)   ...       0.09 
freq.     647.01  E(vib)   ...       0.09 
freq.     649.74  E(vib)   ...       0.08 
freq.     659.92  E(vib)   ...       0.08 
freq.     668.21  E(vib)   ...       0.08 
freq.     686.98  E(vib)   ...       0.07 
freq.     694.47  E(vib)   ...       0.07 
freq.     711.18  E(vib)   ...       0.07 
freq.     716.66  E(vib)   ...       0.07 
freq.     730.04  E(vib)   ...       0.06 
freq.     750.45  E(vib)   ...       0.06 
freq.     761.02  E(vib)   ...       0.06 
freq.     791.36  E(vib)   ...       0.05 
freq.     799.11  E(vib)   ...       0.05 
freq.     810.93  E(vib)   ...       0.05 
freq.     825.02  E(vib)   ...       0.04 
freq.     828.15  E(vib)   ...       0.04 
freq.     836.86  E(vib)   ...       0.04 
freq.     850.39  E(vib)   ...       0.04 
freq.     886.43  E(vib)   ...       0.04 
freq.     887.84  E(vib)   ...       0.04 
freq.     902.17  E(vib)   ...       0.03 
freq.     918.39  E(vib)   ...       0.03 
freq.     923.13  E(vib)   ...       0.03 
freq.     940.90  E(vib)   ...       0.03 
freq.     944.48  E(vib)   ...       0.03 
freq.     959.00  E(vib)   ...       0.03 
freq.     970.83  E(vib)   ...       0.03 
freq.    1002.36  E(vib)   ...       0.02 
freq.    1007.68  E(vib)   ...       0.02 
freq.    1023.65  E(vib)   ...       0.02 
freq.    1044.78  E(vib)   ...       0.02 
freq.    1056.77  E(vib)   ...       0.02 
freq.    1088.16  E(vib)   ...       0.02 
freq.    1091.97  E(vib)   ...       0.02 
freq.    1103.04  E(vib)   ...       0.02 
freq.    1114.47  E(vib)   ...       0.01 
freq.    1149.03  E(vib)   ...       0.01 
freq.    1154.29  E(vib)   ...       0.01 
freq.    1169.47  E(vib)   ...       0.01 
freq.    1196.10  E(vib)   ...       0.01 
freq.    1208.35  E(vib)   ...       0.01 
freq.    1212.26  E(vib)   ...       0.01 
freq.    1237.46  E(vib)   ...       0.01 
freq.    1240.20  E(vib)   ...       0.01 
freq.    1255.53  E(vib)   ...       0.01 
freq.    1266.21  E(vib)   ...       0.01 
freq.    1289.32  E(vib)   ...       0.01 
freq.    1298.65  E(vib)   ...       0.01 
freq.    1313.21  E(vib)   ...       0.01 
freq.    1330.21  E(vib)   ...       0.01 
freq.    1333.73  E(vib)   ...       0.01 
freq.    1334.68  E(vib)   ...       0.01 
freq.    1339.04  E(vib)   ...       0.01 
freq.    1352.04  E(vib)   ...       0.01 
freq.    1355.33  E(vib)   ...       0.01 
freq.    1367.79  E(vib)   ...       0.01 
freq.    1375.46  E(vib)   ...       0.01 
freq.    1384.25  E(vib)   ...       0.00 
freq.    1394.47  E(vib)   ...       0.00 
freq.    1417.08  E(vib)   ...       0.00 
freq.    1450.54  E(vib)   ...       0.00 
freq.    1458.81  E(vib)   ...       0.00 
freq.    1471.48  E(vib)   ...       0.00 
freq.    1476.22  E(vib)   ...       0.00 
freq.    1487.00  E(vib)   ...       0.00 
freq.    1492.97  E(vib)   ...       0.00 
freq.    1497.84  E(vib)   ...       0.00 
freq.    1518.46  E(vib)   ...       0.00 
freq.    1522.51  E(vib)   ...       0.00 
freq.    1533.24  E(vib)   ...       0.00 
freq.    1548.23  E(vib)   ...       0.00 
freq.    1555.78  E(vib)   ...       0.00 
freq.    1585.60  E(vib)   ...       0.00 
freq.    1604.45  E(vib)   ...       0.00 
freq.    1632.54  E(vib)   ...       0.00 
freq.    1636.80  E(vib)   ...       0.00 
freq.    1650.27  E(vib)   ...       0.00 
freq.    1678.24  E(vib)   ...       0.00 
freq.    1693.75  E(vib)   ...       0.00 
freq.    1719.42  E(vib)   ...       0.00 
freq.    1796.59  E(vib)   ...       0.00 
freq.    2858.64  E(vib)   ...       0.00 
freq.    2958.93  E(vib)   ...       0.00 
freq.    2996.77  E(vib)   ...       0.00 
freq.    3003.48  E(vib)   ...       0.00 
freq.    3033.46  E(vib)   ...       0.00 
freq.    3038.16  E(vib)   ...       0.00 
freq.    3064.17  E(vib)   ...       0.00 
freq.    3081.48  E(vib)   ...       0.00 
freq.    3087.20  E(vib)   ...       0.00 
freq.    3093.58  E(vib)   ...       0.00 
freq.    3122.79  E(vib)   ...       0.00 
freq.    3139.21  E(vib)   ...       0.00 
freq.    3146.08  E(vib)   ...       0.00 
freq.    3161.93  E(vib)   ...       0.00 
freq.    3180.35  E(vib)   ...       0.00 
freq.    3543.23  E(vib)   ...       0.00 
freq.    3544.06  E(vib)   ...       0.00 
freq.    3564.37  E(vib)   ...       0.00 
freq.    3662.26  E(vib)   ...       0.00 

------------
INNER ENERGY
------------

The inner energy is: U= E(el) + E(ZPE) + E(vib) + E(rot) + E(trans)
    E(el)   - is the total energy from the electronic structure calculation
              = E(kin-el) + E(nuc-el) + E(el-el) + E(nuc-nuc)
    E(ZPE)  - the the zero temperature vibrational energy from the frequency calculation
    E(vib)  - the the finite temperature correction to E(ZPE) due to population
              of excited vibrational states
    E(rot)  - is the rotational thermal energy
    E(trans)- is the translational thermal energy

Summary of contributions to the inner energy U:
Electronic energy                ...  -1569.49258422 Eh
Zero point energy                ...      0.38729645 Eh     243.03 kcal/mol
Thermal vibrational correction   ...      0.02450585 Eh      15.38 kcal/mol
Thermal rotational correction    ...      0.00141627 Eh       0.89 kcal/mol
Thermal translational correction ...      0.00141627 Eh       0.89 kcal/mol
-----------------------------------------------------------------------
Total thermal energy                  -1569.07794938 Eh


Summary of corrections to the electronic energy:
(perhaps to be used in another calculation)
Total thermal correction                  0.02733839 Eh      17.16 kcal/mol
Non-thermal (ZPE) correction              0.38729645 Eh     243.03 kcal/mol
-----------------------------------------------------------------------
Total correction                          0.41463484 Eh     260.19 kcal/mol


--------
ENTHALPY
--------

The enthalpy is H = U + kB*T
                kB is Boltzmann's constant
Total thermal energy              ...  -1569.07794938 Eh 
Thermal Enthalpy correction       ...      0.00094421 Eh       0.59 kcal/mol
-----------------------------------------------------------------------
Total Enthalpy                    ...  -1569.07700517 Eh


Note: Only C1 symmetry has been detected, increase convergence thresholds 
      if your molecule has a higher symmetry. Symmetry factor of 1.0 is   
      used for the rotational entropy correction. 
 

Note: Rotational entropy computed according to Herzberg 
Infrared and Raman Spectra, Chapter V,1, Van Nostrand Reinhold, 1945 
Point Group:  C1, Symmetry Number:   1  
Rotational constants in cm-1:     0.006925     0.003456     0.002662 

Vibrational entropy computed according to the QRRHO of S. Grimme
Chem.Eur.J. 2012 18 9955 using a reference frequency of 100.0 cm-1


-------
ENTROPY
-------

The entropy contributions are T*S = T*(S(el)+S(vib)+S(rot)+S(trans))
     S(el)   - electronic entropy
     S(vib)  - vibrational entropy
     S(rot)  - rotational entropy
     S(trans)- translational entropy
The entropies will be listed as multiplied by the temperature to get
units of energy

Electronic entropy                ...      0.00000000 Eh      0.00 kcal/mol
Vibrational entropy               ...      0.04309307 Eh     27.04 kcal/mol
Rotational entropy                ...      0.01733275 Eh     10.88 kcal/mol
Translational entropy             ...      0.02097411 Eh     13.16 kcal/mol
-----------------------------------------------------------------------
Final entropy term                ...      0.08139993 Eh     51.08 kcal/mol

In case the symmetry of your molecule has not been determined correctly
or in case you have a reason to use a different symmetry number we print 
out the resulting rotational entropy values for sn=1,12:

 non-linear molecules -----------------------------------
|  sn= 1 | S(rot)=       0.01733275 Eh     10.88 kcal/mol|
|  sn= 2 | S(rot)=       0.01667829 Eh     10.47 kcal/mol|
|  sn= 3 | S(rot)=       0.01629546 Eh     10.23 kcal/mol|
|  sn= 4 | S(rot)=       0.01602383 Eh     10.06 kcal/mol|
|  sn= 5 | S(rot)=       0.01581315 Eh      9.92 kcal/mol|
|  sn= 6 | S(rot)=       0.01564100 Eh      9.81 kcal/mol|
|  sn= 7 | S(rot)=       0.01549546 Eh      9.72 kcal/mol|
|  sn= 8 | S(rot)=       0.01536938 Eh      9.64 kcal/mol|
|  sn= 9 | S(rot)=       0.01525817 Eh      9.57 kcal/mol|
|  sn=10 | S(rot)=       0.01515869 Eh      9.51 kcal/mol|
|  sn=11 | S(rot)=       0.01506870 Eh      9.46 kcal/mol|
|  sn=12 | S(rot)=       0.01498655 Eh      9.40 kcal/mol|
 linear molecules ---------------------------------------
|  Dinfh | S(rot)=       0.01092338 Eh      6.85 kcal/mol|
|  Cinfv | S(rot)=       0.01157784 Eh      7.27 kcal/mol|
 --------------------------------------------------------


-------------------
GIBBS FREE ENERGY
-------------------

The Gibbs free energy is G = H - T*S

Total enthalpy                    ...  -1569.07700517 Eh 
Total entropy correction          ...     -0.08139993 Eh    -51.08 kcal/mol
-----------------------------------------------------------------------
Final Gibbs free energy         ...  -1569.15840510 Eh

For completeness - the Gibbs free energy minus the electronic energy
G-E(el)                           ...      0.33417912 Eh    209.70 kcal/mol


Maximum memory used throughout the entire PROP-calculation: 191.4 MB

--------------------------------
SUGGESTED CITATIONS FOR THIS RUN
--------------------------------

Below you find a list of papers that are relevant to this ORCA run
We neither can nor want to force you to cite these papers, but we appreciate if you do
You receive ORCA, which is the product of decades of hard work by many enthusiastic individuals, for free
The only thing we kindly ask in return is that you cite our papers,
We deeply appreciate it, if you show your appreciation for ORCA by not just citing the generic ORCA reference.

Please note that relegating all ORCA citations to the supporting information does *not* help us.
SI sections are not indexed - citations you put there will not count into any citation statistics
But we need these citations in order to attract the funding resources that allow us to do what we are doing

Therefore, if you are a happy ORCA user, please consider citing a few of the papers listed below in the main body of your paper

In addition to the list printed below, the program has created the file m1_00_Vitamin_B9-GFN2_0001-B97-3C-TZ.bibtex that contains the list in bibtex format
You can import this file easily into all common literature databanks and citation aid programs


List of essential papers. We consider these as the minimum necessary citations

  1. Neese,F.
     Software update: the ORCA program system, version 5.0
     WIRES Comput. Molec. Sci., 2022 12(1)e1606
     doi.org/10.1002/wcms.1606

List of papers to cite with high priority. The work reported in these papers was absolutely
necessary for this run to complete.
Our perspective: the developers of density functionals and basis sets usually get cited in chemistry papers
Good! But without the algorithms to do something with them, the functionals or basis sets would not do anything.
Hence, in our opinion, the algorithm design and method developments papers are equally worthy of getting cited

  1. Neese,F.
     An improvement of the resolution of the identity approximation for the formation of the Coulomb matrix
     J. Comp. Chem., 2003 24(14)1740-1747
     doi.org/10.1002/jcc.10318
  2. Bykov,D.; Petrenko,T.; Izsak,R.; Kossmann,S.; Becker,U.; Valeev,E.; Neese,F.
     Efficient implementation of the analytic second derivatives of Hartree-Fock and hybrid DFT energies: a detailed analysis of different approximations
     Molec. Phys., 2015 113 1961-1977
     doi.org/10.1080/00268976.2015.1025114
  3. Neese,F.
     The SHARK Integral Generation and Digestion System
     J. Comp. Chem., 2022  1-16
     doi.org/10.1002/jcc.26942
  4. Grimme,S.; Antony,J.; Ehrlich,S.; Krieg,H.
     A consistent and accurate ab initio parametrization of density functional dispersion correction (DFT-D) for the 94 elements H-Pu
     J. Chem. Phys., 2010 132 154104
     doi.org/10.1063/1.3382344
  5. Grimme,S.; Ehrlich,S.; Goerigk,L.
     Effect of the damping function in dispersion corrected density functional theory
     J. Comput. Chem., 2011 32(7)1456-1465
     doi.org/10.1002/jcc.21759

List of suggested additional citations. These are papers that are important in the 'surrounding' of 
of this run, or papers that preceded the highly important papers. If you like your results we are grateful for a citation.

  1. Neese,F.
     The ORCA program system
     WIRES Comput. Molec. Sci., 2012 2(1)73-78
     doi.org/10.1002/wcms.81
  2. Neese,F.
     Software update: the ORCA program system, version 4.0
     WIRES Comput. Molec. Sci., 2018 8(1)1-6
     doi.org/10.1002/wcms.1327
  3. Neese,F.; Wennmohs,F.; Becker,U.; Riplinger,C.
     The ORCA quantum chemistry program package
     J. Chem. Phys., 2020 152 Art. No. L224108
     doi.org/10.1063/5.0004608

List of optional additional citations

  1. Neese,F.
     Approximate second-order SCF convergence for spin unrestricted wavefunctions
     Chem. Phys. Lett., 2000 325(1-3)93-98
     doi.org/10.1016/s0009-2614(00)00662-x

Timings for individual modules:

Sum of individual times          ...     1948.251 sec (=  32.471 min)
Startup calculation              ...      167.050 sec (=   2.784 min)   8.6 %
SCF iterations                   ...      641.294 sec (=  10.688 min)  32.9 %
Property integrals               ...      287.159 sec (=   4.786 min)  14.7 %
SCF Response                     ...      444.180 sec (=   7.403 min)  22.8 %
Property calculations            ...      100.263 sec (=   1.671 min)   5.1 %
SCF Gradient evaluation          ...      307.864 sec (=   5.131 min)  15.8 %
Geometry relaxation              ...        0.441 sec (=   0.007 min)   0.0 %
                             ****ORCA TERMINATED NORMALLY****
TOTAL RUN TIME: 0 days 0 hours 32 minutes 34 seconds 425 msec
