
                                 *****************
                                 * O   R   C   A *
                                 *****************

                                            #,                                       
                                            ###                                      
                                            ####                                     
                                            #####                                    
                                            ######                                   
                                           ########,                                 
                                     ,,################,,,,,                         
                               ,,#################################,,                 
                          ,,##########################################,,             
                       ,#########################################, ''#####,          
                    ,#############################################,,   '####,        
                  ,##################################################,,,,####,       
                ,###########''''           ''''###############################       
              ,#####''   ,,,,##########,,,,          '''####'''          '####       
            ,##' ,,,,###########################,,,                        '##       
           ' ,,###''''                  '''############,,,                           
         ,,##''                                '''############,,,,        ,,,,,,###''
      ,#''                                            '''#######################'''  
     '                                                          ''''####''''         
             ,#######,   #######,   ,#######,      ##                                
            ,#'     '#,  ##    ##  ,#'     '#,    #''#        ,####,   ,####,        
            ##       ##  ##   ,#'  ##            #'  '#       #'       #'  '#        
            ##       ##  #######   ##           ,######,      #####,   #    #        
            '#,     ,#'  ##    ##  '#,     ,#' ,#      #,     #,   #   #,  ,#        
             '#######'   ##     ##  '#######'  #'      '#     '####' # '####'        



                #########################################################
                #                        -***-                          #
                #          Department of theory and spectroscopy        #
                #                                                       #
                #                      Frank Neese                      #
                #                                                       #
                #     Directorship, Architecture, Infrastructure        #
                #                    SHARK, DRIVERS                     #
                #        Core code/Algorithms in most modules           #
                #                                                       #
                #        Max Planck Institute fuer Kohlenforschung      #
                #                Kaiser Wilhelm Platz 1                 #
                #                 D-45470 Muelheim/Ruhr                 #
                #                      Germany                          #
                #                                                       #
                #                  All rights reserved                  #
                #                        -***-                          #
                #########################################################


                         Program Version 6.0.1  -  RELEASE   -


 With contributions from (in alphabetic order):
[Max-Planck-Institut fuer Kohlenforschung]                               
  Daniel Aravena         : Magnetic Suceptibility                        
  Michael Atanasov       : Ab Initio Ligand Field Theory (pilot matlab implementation)
  Alexander A. Auer      : GIAO ZORA, VPT2 properties, NMR spectrum      
  Ute Becker             : All parallelization in ORCA, NUMFREQ, NUMCALC 
  Giovanni Bistoni       : ED, misc. LED, open-shell LED, HFLD           
  Martin Brehm           : Molecular dynamics                            
  Dmytro Bykov           : pre 5.0 version of the SCF Hessian            
  Marcos Casanova-Páez   : Triplet and SCS-CIS(D). UHF-(DLPNO)-IP/EA/STEOM-CCSD. UHF-CVS-IP/STEOM-CCSD   
  Vijay G. Chilkuri      : MRCI spin determinant printing, contributions to CSF-ICE 
  Pauline Colinet        : FMM embedding                                 
  Dipayan Datta          : RHF DLPNO-CCSD density                        
  Achintya Kumar Dutta   : EOM-CC, STEOM-CC                              
  Nicolas Foglia         : Exact transition moments, OPA infrastructure, MCD improvements    
  Dmitry Ganyushin       : Spin-Orbit,Spin-Spin,Magnetic field MRCI      
  Miquel Garcia-Rates    : C-PCM and meta-GGA Hessian, CCSD/C-PCM, Gaussian charge scheme 
  Tiago L. C. Gouveia    : GS-ROHF, GS-ROCIS                             
  Yang Guo               : DLPNO-NEVPT2, F12-NEVPT2, CIM, IAO-localization        
  Andreas Hansen         : Spin unrestricted coupled pair/coupled cluster methods 
  Ingolf Harden          : AUTO-CI MPn and infrastructure                
  Benjamin Helmich-Paris : MC-RPA, TRAH-(SCF,CASSCF), AVAS, COSX integrals, SCF dyn. polar. 
  Lee Huntington         : MR-EOM, pCC                                   
  Robert Izsak           : Overlap fitted RIJCOSX, COSX-SCS-MP3, EOM     
  Riya Kayal             : Wick's Theorem for AUTO-CI, AUTO-CI UHF-CCSDT 
  Emily Kempfer          : AUTO-CI, RHF CISDT and CCSDT                  
  Christian Kollmar      : KDIIS, OOCD, Brueckner-CCSD(T), CCSD density, CASPT2, CASPT2-K, improved NEVPT2 
  Axel Koslowski         : Symmetry handling                             
  Simone Kossmann        : meta-GGA functionals, TD-DFT gradient, OOMP2, (MP2 Hessian; deprecated post 5.0) 
  Lucas Lang             : DCDCAS                                        
  Marvin Lechner         : AUTO-CI (C++ implementation), FIC-MRCC        
  Spencer Leger          : CASSCF response                               
  Dagmar Lenk            : GEPOL surface, SMD, ORCA-2-JSON               
  Dimitrios Liakos       : Extrapolation schemes; Compound Job, initial MDCI parallelization 
  Dimitrios Manganas     : Further ROCIS development; embedding schemes. LFT, Crystal Embedding 
  Dimitrios Pantazis     : SARC Basis sets                               
  Anastasios Papadopoulos: AUTO-CI, single reference methods and gradients 
  Taras Petrenko         : pre 6.0 DFT Hessian and TD-DFT gradient, (ASA, deprecated), ECA, 1-Electron XAS/XES, NRVS 
  Peter Pinski           : DLPNO-MP2, DLPNO-MP2 Gradient                 
  Christoph Reimann      : Effective Core Potentials                     
  Marius Retegan         : Local ZFS, SOC                                
  Christoph Riplinger    : Optimizer, TS searches, QM/MM, DLPNO-CCSD(T), (RO)-DLPNO pert. Triples 
  Michael Roemelt        : Original ROCIS implementation                 
  Masaaki Saitow         : Open-shell DLPNO-CCSD energy and density      
  Barbara Sandhoefer     : DKH picture change effects                    
  Kantharuban Sivalingam : CASSCF convergence/infrastructure, NEVPT2 and variants, FIC-MRCI 
  Bernardo de Souza      : ESD, SOC TD-DFT                               
  Georgi L. Stoychev     : AutoAux, RI-MP2 NMR, DLPNO-MP2 response, X2C  
  Van Anh Tran           : RI-MP2 g-tensors                              
  Willem Van den Heuvel  : Paramagnetic NMR                              
  Zikuan Wang            : NOTCH, Electric field optimization            
  Frank Wennmohs         : Technical directorship and infrastructure     
  Hang Xu                : AUTO-CI-Response properties                   
                                                                         
[FACCTs GmbH]                                                            
  Markus Bursch, Miquel Garcia-Rates, Christoph Riplinger, Bernardo de Souza, Georgi L. Stoychev 
                                                                 
  APM, Basis sets (HGBS, AHGBS, def-TZVP (Ac-Lr), def2-XVPD (La-Lu)), CI-OPT, improved COSX, DLPNO-Multilevel,           
  DOCKER, DRACO, updates on ESD, GOAT, IRC, LR-CPCM, MBIS, meta-GGA TD-DFT gradient, ML-optimized integration grids, 
  MM, NACMEs, nearIR, NEB, NEB-TS, NL-DFT gradient (VV10), 2- and 3-layer-ONIOM, interface openCOSMO-RS, QMMM,   
  Crystal-QMMM, SF, symmetry and pop. for TD-DFT, r2SCAN hybrids, SOLVATOR                                   
                                                                         
[Other institutions]                                                     
  V. Asgeirsson          : NEB                                           
  Christoph Bannwarth    : sTDA-DFT, sTD-DFT, PBEh-3c, B97-3c, D3        
  Sebastian Ehlert       : rSCAN, r2SCAN, r2SCAN-3c, D4, dhf basis sets  
  Marvin Friede          : D4 for Fr, Ra, Ac-Lr                          
  Lars Goerigk           : TD-DFT with DH, B97 family of functionals     
  Stefan Grimme          : VdW corrections, initial TS optimization, DFT functionals, gCP, sTDA/sTD-DF 
  Waldemar Hujo          : DFT-NL                                        
  H. Jonsson             : NEB                                           
  Holger Kruse           : gCP                                           
  Marcel Mueller         : wB97X-3c, vDZP basis set                      
  Hagen Neugebauer       : wr2SCAN                                       
  Tobias Risthaus        : range-separated hybrid DFT                    
  Lukas Wittmann         : regularized MP2, r2SCAN double-hybrids, wr2SCAN        
                                                                         
We gratefully acknowledge several colleagues who have allowed us to      
interface, adapt or use parts of their codes:                            
  Ed Valeev, F. Pavosevic, A. Kumar             : LibInt (2-el integral package), F12 methods 
  Garnet Chan, S. Sharma, J. Yang, R. Olivares  : DMRG                   
  Ulf Ekstrom                                   : XCFun DFT Library      
  Mihaly Kallay                                 : mrcc  (arbitrary order and MRCC methods)
  Frank Weinhold                                : gennbo (NPA and NBO analysis)           
  Simon Mueller                                 : openCOSMO-RS                            
  Christopher J. Cramer and Donald G. Truhlar   : smd solvation model                     
  S Lehtola, MJT Oliveira, MAL Marques          : LibXC Library                           
  Liviu Ungur et al                             : ANISO software                          


 Your calculation uses the libint2 library for the computation of 2-el integrals
 For citations please refer to: http://libint.valeyev.net

 Your ORCA version has been built with support for libXC version: 6.2.2
 For citations please refer to: https://libxc.gitlab.io

 This ORCA versions uses:
   CBLAS   interface :  Fast vector & matrix operations
   LAPACKE interface :  Fast linear algebra routines
   SCALAPACK package :  Parallel linear algebra routines
   Shared memory     :  Shared parallel matrices
   BLAS/LAPACK       :  OpenBLAS 0.3.27  USE64BITINT DYNAMIC_ARCH NO_AFFINITY Zen SINGLE_THREADED
        Core in use  :  Zen
   Copyright (c) 2011-2014, The OpenBLAS Project


NOTE: MaxCore=6000 MB was set to SCF,MP2,MDCI,CIPSI,MRCI and CIS
      => If you want to overwrite this, your respective input block should be placed after the MaxCore statement
Your calculation utilizes the atom-pairwise dispersion correction
with the Becke-Johnson damping scheme (D3BJ)


Your calculation employs the composite approach B97-3c by Grimme and coworkers.
For the correct reference, please check the publication list of the Grimme group:
http://www.thch.uni-bonn.de/tc/index.php?section=publikationen&subsection=grimme#2017
   

XCFun DFT library Copyright 2009-2010 Ulf Ekstrom and contributors.
See http://admol.org/xcfun for more information.
This is free software; see the source code for copying conditions.
There is ABSOLUTELY NO WARRANTY; not even for MERCHANTABILITY or FITNESS FOR A PARTICULAR PURPOSE.
For details see the documentation.
Scientific users of this library should cite U. Ekstrom, L. Visscher, R. Bast, A. J. Thorvaldsen and K. Ruud;
J.Chem.Theor.Comp. 2010, DOI: 10.1021/ct100117s
XCFun Version 0.99 

================================================================================

----- Orbital basis set information -----
Your calculation utilizes the basis: def2-mTZVP
----- AuxJ basis set information -----
Your calculation utilizes the basis: def2-mTZVP/J
================================================================================
                                        WARNINGS
                       Please study these warnings very carefully!
================================================================================


WARNING: Geometry Optimization
  ===> : Switching off AutoStart
         For restart on a previous wavefunction, please use MOREAD

================================================================================
                                       INPUT FILE
================================================================================
NAME = m1_00_Vitamin_B9-GFN2_0000-B97-3C-TZ.inp
|  1> %pal nprocs 16 end
|  2> %MaxCore 6000
|  3> # put your comments here
|  4> ! B97-3C  OPT  FREQ DEFGRID3 NOTRAH
|  5> %scf MaxIter 800 end
|  6> %output
|  7> Print [P_Hirshfeld] 1
|  8> end
|  9> %geom
| 10> MaxIter 3000
| 11>  TolE 1e-6 #TolE 5e-6 Energy change (a.u.)
| 12>  TolRMSG 3e-5 #TolRMSG 1e-4 RMS gradient (a.u.)
| 13>  TolMaxG 1e-4 #TolMaxG 3e-3 Max. element of gradient (a.u.)
| 14>  TolRMSD 2e-3 #TolRMSD 2e-3 RMS displacement (a.u.)
| 15>  TolMaxD 4e-3 #TolMaxD 4e-3 Max. displacement (a.u.)
| 16> end
| 17> * xyz 0 1
| 18>  O 3.48202660588570 -0.04990241655971 -3.62409376438814
| 19>  O 2.96776127512649 -0.00183237131663 -1.06087061435217
| 20>  O 4.80035826671433 1.22420920108414 -2.33773045544382
| 21>  O 4.82085633325185 3.86200604436185 -0.40108420552267
| 22>  O 2.68147737099090 4.46942321922947 -0.57269767216368
| 23>  O 4.57908612543285 2.85230918663560 1.99774398983988
| 24>  N 1.94631825828923 1.92800540550015 -1.38463326834705
| 25>  N 1.51770917870646 0.91650277392930 4.97592220555987
| 26>  N 3.98091692701760 0.88117688954493 3.95211984419035
| 27>  N 5.24278275991967 -1.55195775861139 3.66794338608166
| 28>  N 5.43749426095496 1.18552397942041 0.72097023309971
| 29>  N 5.85039731058162 -1.00025426155889 1.50541790648289
| 30>  N 6.30743922001311 -0.43245666120775 -0.66775846011861
| 31>  C 2.47423786657723 1.89182919742809 -2.73178529420042
| 32>  C 2.78276089021212 3.29916455961601 -3.26066810919947
| 33>  C 3.94658843571139 4.01899229320201 -2.57495444795852
| 34>  C 2.27106854216834 0.90838071551162 -0.58097060263492
| 35>  C 1.83566075981017 0.91924410867232 0.81557158900804
| 36>  C 3.68498558042652 0.93795320924767 -2.74186477568263
| 37>  C 1.48531988599460 0.89337412074507 3.59329603724203
| 38>  C 2.49342375710024 0.06374875263049 5.64604075848472
| 39>  C 1.82999829706606 -0.28715115006544 1.52344221409111
| 40>  C 1.53038333090909 2.09911089458992 1.50104271317410
| 41>  C 1.62493701878083 -0.30744148381331 2.88120552729156
| 42>  C 1.35227468236122 2.08061146638177 2.86469958612374
| 43>  C 3.73157569887196 4.15171085394073 -1.07998603124237
| 44>  C 3.73080723455060 -0.10544605778557 4.79110504614778
| 45>  C 4.77801173012200 0.65519648623696 2.91709389397317
| 46>  C 4.47959206902275 -1.29212815759073 4.69980732421593
| 47>  C 5.31393799065357 -0.63875668093749 2.68833001277241
| 48>  C 4.91825957050660 1.68188359857233 1.89332353251208
| 49>  C 5.84382444605507 -0.11763184828605 0.54986151418827
| 50>  H 1.72666792668389 1.42973544517488 -3.39457285686751
| 51>  H 2.99909908400132 3.22091937737734 -4.32728017526592
| 52>  H 1.87550243216003 3.89597245717953 -3.13908347303713
| 53>  H 4.03123281194259 5.02371268145979 -2.99489932626123
| 54>  H 4.88421158502796 3.49036525601549 -2.73799216358620
| 55>  H 1.46036583540503 2.75123451830884 -1.06334777920214
| 56>  H 2.05924140825361 -0.92467770273779 5.83331438896844
| 57>  H 2.73573489919265 0.51016331187296 6.61291904859136
| 58>  H 2.02152812750468 -1.20373867232714 0.98568237775635
| 59>  H 1.52461297574354 3.05130792187291 0.99328035338560
| 60>  H 1.53045711317710 1.86621426629402 5.32357722803814
| 61>  H 1.65046327903777 -1.24726971201841 3.41129483210370
| 62>  H 1.19331206117172 3.00861334026983 3.39342629590003
| 63>  H 4.44189569880282 -2.05076951470412 5.47134830150032
| 64>  H 4.24957734984283 -0.63928265012490 -3.65682010710386
| 65>  H 5.45788841178220 1.80043403296099 -0.09254621878137
| 66>  H 4.66283685594344 3.77197365135709 0.58827020876690
| 67>  H 6.47380447117855 -1.41246055033629 -0.82510767202439
| 68>  H 5.97766899346244 0.13831443333085 -1.44454787617892
| 69> *
| 70> 
| 71> 
| 72> 
| 73> 
| 74>                          ****END OF INPUT****
================================================================================

                       *****************************
                       * Geometry Optimization Run *
                       *****************************

Geometry optimization settings:
Update method            Update   .... BFGS
Choice of coordinates    CoordSys .... (2022) Redundant Internals
Initial Hessian          InHess   .... Almloef's Model
Max. no of cycles        MaxIter  .... 3000

Convergence Tolerances:
Energy Change            TolE     ....  1.0000e-06 Eh
Max. Gradient            TolMAXG  ....  1.0000e-04 Eh/bohr
RMS Gradient             TolRMSG  ....  3.0000e-05 Eh/bohr
Max. Displacement        TolMAXD  ....  4.0000e-03 bohr
RMS Displacement         TolRMSD  ....  2.0000e-03 bohr
Strict Convergence                .... False

------------------------------------------------------------------------------
                        ORCA OPTIMIZATION COORDINATE SETUP
------------------------------------------------------------------------------

The optimization will be done in redundant internal coordinates (2022)
Making redundant internal coordinates   ...  (2022 redundants) done
Evaluating the initial hessian          ...  (Almloef) done
Evaluating the coordinates              ...  done
Calculating the B-matrix                .... done
Calculating the G-matrix                .... done
Diagonalizing the G-matrix              .... done
Small eigenvalue found = 3.210e-03
Small eigenvalue found = 8.882e-03
Small eigenvalue found = 1.381e-02
Small eigenvalue found = 1.525e-02
Small eigenvalue found = 2.365e-02
The first mode is                       ....  113
The number of degrees of freedom        ....  147

    -----------------------------------------------------------------
                    Redundant Internal Coordinates


    -----------------------------------------------------------------
         Definition                    Initial Value    Approx d2E/dq
    -----------------------------------------------------------------
      1. B(C  13,N   6)                  1.4474         0.453289   
      2. B(C  14,C  13)                  1.5348         0.367095   
      3. B(C  15,C  14)                  1.5306         0.372701   
      4. B(C  16,N   6)                  1.3383         0.676713   
      5. B(C  16,O   1)                  1.2426         0.961539   
      6. B(C  17,C  16)                  1.4629         0.478033   
      7. B(C  18,O   0)                  1.3399         0.672634   
      8. B(C  18,C  13)                  1.5414         0.358263   
      9. B(C  18,O   2)                  1.2204         1.043509   
     10. B(C  19,N   7)                  1.3832         0.573755   
     11. B(C  20,N   7)                  1.4589         0.434527   
     12. B(C  21,C  17)                  1.3988         0.605032   
     13. B(C  22,C  17)                  1.3983         0.606107   
     14. B(C  23,C  21)                  1.3733         0.664301   
     15. B(C  23,C  19)                  1.4030         0.595570   
     16. B(C  24,C  22)                  1.3754         0.659311   
     17. B(C  24,C  19)                  1.3993         0.603775   
     18. B(C  25,C  15)                  1.5162         0.393043   
     19. B(C  25,O   4)                  1.2087         1.089196   
     20. B(C  25,O   3)                  1.3158         0.734908   
     21. B(C  26,C  20)                  1.5135         0.396930   
     22. B(C  26,N   8)                  1.3190         0.726243   
     23. B(C  27,N   8)                  1.3258         0.708478   
     24. B(C  28,C  26)                  1.4061         0.588829   
     25. B(C  28,N   9)                  1.3095         0.752236   
     26. B(C  29,C  27)                  1.4191         0.561436   
     27. B(C  29,N  11)                  1.3482         0.652381   
     28. B(C  29,N   9)                  1.3411         0.669634   
     29. B(C  30,C  27)                  1.4567         0.489086   
     30. B(C  30,N  10)                  1.3749         0.591485   
     31. B(C  30,O   5)                  1.2230         1.033337   
     32. B(C  31,N  12)                  1.3404         0.671462   
     33. B(C  31,N  11)                  1.3008         0.776504   
     34. B(C  31,N  10)                  1.3757         0.589743   
     35. B(H  32,C  13)                  1.1008         0.346140   
     36. B(H  33,C  14)                  1.0911         0.358595   
     37. B(H  34,C  14)                  1.0927         0.356494   
     38. B(H  35,C  15)                  1.0922         0.357153   
     39. B(H  36,C  15)                  1.0887         0.361887   
     40. B(H  37,O   4)                  2.1643         0.006232   
     41. B(H  37,N   6)                  1.0085         0.435093   
     42. B(H  38,C  20)                  1.0957         0.352630   
     43. B(H  39,C  20)                  1.0922         0.357229   
     44. B(H  40,C  21)                  1.0798         0.373828   
     45. B(H  41,C  22)                  1.0791         0.374762   
     46. B(H  42,N   7)                  1.0114         0.430450   
     47. B(H  43,C  23)                  1.0793         0.374514   
     48. B(H  44,C  24)                  1.0798         0.373824   
     49. B(H  45,C  28)                  1.0827         0.369891   
     50. B(H  46,O   0)                  0.9683         0.504371   
     51. B(H  47,N  12)                  2.4573         0.002124   
     52. B(H  47,O   3)                  2.1797         0.005889   
     53. B(H  47,O   2)                  2.4094         0.002532   
     54. B(H  47,N  10)                  1.0200         0.417146   
     55. B(H  48,O   4)                  2.4000         0.002621   
     56. B(H  48,O   5)                  1.6851         0.036240   
     57. B(H  48,O   3)                  1.0059         0.439224   
     58. B(H  49,N  12)                  1.0064         0.438466   
     59. B(H  50,N  10)                  2.4653         0.002062   
     60. B(H  50,O   2)                  1.8338         0.020980   
     61. B(H  50,N  12)                  1.0188         0.418961   
     62. A(C  18,O   0,H  46)          110.5447         0.373383   
     63. A(C  25,O   3,H  48)          113.3980         0.370198   
     64. A(C  13,N   6,H  37)          119.5169         0.340527   
     65. A(C  13,N   6,C  16)          116.8332         0.411510   
     66. A(C  16,N   6,H  37)          123.1986         0.364407   
     67. A(C  19,N   7,H  42)          111.0745         0.353665   
     68. A(C  20,N   7,H  42)          112.4917         0.337528   
     69. A(C  19,N   7,C  20)          117.7129         0.396726   
     70. A(C  26,N   8,C  27)          118.8860         0.451565   
     71. A(C  28,N   9,C  29)          118.1250         0.449827   
     72. A(C  31,N  10,H  47)          117.7727         0.353431   
     73. A(C  30,N  10,H  47)          118.0337         0.353607   
     74. A(C  30,N  10,C  31)          124.0258         0.421031   
     75. A(C  29,N  11,C  31)          117.4234         0.450289   
     76. A(C  31,N  12,H  50)          116.6848         0.361581   
     77. A(H  49,N  12,H  50)          118.6755         0.302335   
     78. A(C  31,N  12,H  49)          115.3355         0.364402   
     79. A(C  14,C  13,H  32)          108.2987         0.321301   
     80. A(C  18,C  13,H  32)          105.6484         0.320024   
     81. A(N   6,C  13,C  14)          111.7865         0.372146   
     82. A(C  14,C  13,C  18)          114.0356         0.359691   
     83. A(N   6,C  13,C  18)          107.9424         0.370590   
     84. A(N   6,C  13,H  32)          108.8572         0.330654   
     85. A(C  15,C  14,H  34)          108.9413         0.323659   
     86. A(H  33,C  14,H  34)          108.2126         0.290189   
     87. A(C  13,C  14,H  33)          108.1169         0.323167   
     88. A(C  13,C  14,C  15)          115.4488         0.362122   
     89. A(C  13,C  14,H  34)          107.1916         0.322855   
     90. A(C  15,C  14,H  33)          108.7168         0.323971   
     91. A(H  35,C  15,H  36)          108.8049         0.290690   
     92. A(C  14,C  15,H  36)          111.0646         0.324458   
     93. A(C  14,C  15,C  25)          112.0283         0.366377   
     94. A(C  25,C  15,H  36)          108.1986         0.327307   
     95. A(C  25,C  15,H  35)          108.0335         0.326598   
     96. A(C  14,C  15,H  35)          108.6193         0.323757   
     97. A(N   6,C  16,C  17)          119.6965         0.418122   
     98. A(O   1,C  16,C  17)          122.7509         0.445358   
     99. A(O   1,C  16,N   6)          117.5296         0.471352   
    100. A(C  21,C  17,C  22)          118.6065         0.430407   
    101. A(C  16,C  17,C  22)          122.6323         0.412678   
    102. A(C  16,C  17,C  21)          118.5499         0.412548   
    103. A(O   0,C  18,O   2)          121.9656         0.477965   
    104. A(O   2,C  18,C  13)          124.7907         0.429078   
    105. A(O   0,C  18,C  13)          109.9724         0.396902   
    106. A(C  23,C  19,C  24)          118.1220         0.428894   
    107. A(N   7,C  19,C  24)          120.5642         0.423262   
    108. A(N   7,C  19,C  23)          121.2856         0.422229   
    109. A(N   7,C  20,H  38)          109.9249         0.329361   
    110. A(N   7,C  20,C  26)          110.6513         0.374454   
    111. A(H  38,C  20,H  39)          107.7777         0.289520   
    112. A(C  26,C  20,H  39)          111.3693         0.327139   
    113. A(N   7,C  20,H  39)          108.4278         0.330067   
    114. A(C  26,C  20,H  38)          108.6429         0.326442   
    115. A(C  17,C  21,H  40)          118.6434         0.353685   
    116. A(C  23,C  21,H  40)          120.4188         0.359343   
    117. A(C  17,C  21,C  23)          120.9100         0.437565   
    118. A(C  17,C  22,C  24)          120.1973         0.437111   
    119. A(C  24,C  22,H  41)          118.5351         0.359035   
    120. A(C  17,C  22,H  41)          121.0009         0.353941   
    121. A(C  21,C  23,H  43)          119.6637         0.359456   
    122. A(C  19,C  23,H  43)          119.8904         0.352852   
    123. A(C  19,C  23,C  21)          120.2651         0.436324   
    124. A(C  19,C  24,C  22)          121.0207         0.436807   
    125. A(C  22,C  24,H  44)          119.5367         0.358882   
    126. A(C  19,C  24,H  44)          119.2226         0.353560   
    127. A(O   4,C  25,C  15)          124.0583         0.439670   
    128. A(O   3,C  25,C  15)          111.8433         0.409792   
    129. A(O   3,C  25,O   4)          124.0926         0.489707   
    130. A(C  20,C  26,C  28)          124.4985         0.397315   
    131. A(N   8,C  26,C  28)          119.2733         0.439583   
    132. A(N   8,C  26,C  20)          115.5118         0.409645   
    133. A(C  29,C  27,C  30)          119.5383         0.408768   
    134. A(N   8,C  27,C  30)          119.1064         0.423281   
    135. A(N   8,C  27,C  29)          120.5520         0.433884   
    136. A(C  26,C  28,H  45)          121.7712         0.351434   
    137. A(N   9,C  28,H  45)          116.2823         0.364110   
    138. A(N   9,C  28,C  26)          121.9365         0.442384   
    139. A(N  11,C  29,C  27)          122.4240         0.427505   
    140. A(N   9,C  29,C  27)          118.8868         0.429511   
    141. A(N   9,C  29,N  11)          118.6466         0.438381   
    142. A(N  10,C  30,C  27)          112.4072         0.409901   
    143. A(O   5,C  30,C  27)          126.0006         0.453093   
    144. A(O   5,C  30,N  10)          121.5342         0.465973   
    145. A(N  11,C  31,N  12)          120.4097         0.452654   
    146. A(N  10,C  31,N  12)          115.9528         0.430700   
    147. A(N  10,C  31,N  11)          123.5626         0.442128   
    148. D(C  14,C  13,N   6,H  37)     26.2495         0.017531   
    149. D(C  18,C  13,N   6,C  16)    -20.0983         0.017531   
    150. D(C  18,C  13,N   6,H  37)    152.4408         0.017531   
    151. D(H  32,C  13,N   6,C  16)     94.1189         0.017531   
    152. D(C  14,C  13,N   6,C  16)   -146.2896         0.017531   
    153. D(C  15,C  14,C  13,N   6)     68.2371         0.010783   
    154. D(C  15,C  14,C  13,H  32)   -171.8430         0.010783   
    155. D(H  33,C  14,C  13,C  18)     67.4296         0.010783   
    156. D(C  15,C  14,C  13,C  18)    -54.5493         0.010783   
    157. D(H  33,C  14,C  13,N   6)   -169.7840         0.010783   
    158. D(H  33,C  14,C  13,H  32)    -49.8642         0.010783   
    159. D(H  35,C  15,C  14,C  13)   -176.8011         0.011095   
    160. D(C  25,C  15,C  14,H  34)     63.0773         0.011095   
    161. D(C  25,C  15,C  14,H  33)   -179.2021         0.011095   
    162. D(C  25,C  15,C  14,C  13)    -57.5452         0.011095   
    163. D(H  35,C  15,C  14,H  34)    -56.1786         0.011095   
    164. D(H  35,C  15,C  14,H  33)     61.5420         0.011095   
    165. D(C  17,C  16,N   6,H  37)      4.2642         0.037647   
    166. D(C  17,C  16,N   6,C  13)    176.5034         0.037647   
    167. D(O   1,C  16,N   6,H  37)   -174.0396         0.037647   
    168. D(O   1,C  16,N   6,C  13)     -1.8005         0.037647   
    169. D(C  22,C  17,C  16,N   6)    -23.9369         0.015558   
    170. D(C  22,C  17,C  16,O   1)    154.2747         0.015558   
    171. D(C  21,C  17,C  16,N   6)    161.4241         0.015558   
    172. D(C  21,C  17,C  16,O   1)    -20.3643         0.015558   
    173. D(O   0,C  18,C  13,H  32)      5.4428         0.009659   
    174. D(O   0,C  18,C  13,C  14)   -113.3691         0.009659   
    175. D(O   0,C  18,C  13,N   6)    121.7711         0.009659   
    176. D(C  13,C  18,O   0,H  46)    178.2743         0.033633   
    177. D(O   2,C  18,C  13,N   6)    -78.4450         0.009659   
    178. D(O   2,C  18,O   0,H  46)     17.8173         0.033633   
    179. D(O   2,C  18,C  13,C  14)     46.4148         0.009659   
    180. D(C  24,C  19,N   7,H  42)     -5.8015         0.026367   
    181. D(C  24,C  19,N   7,C  20)   -137.5238         0.026367   
    182. D(C  23,C  19,N   7,H  42)    172.2326         0.026367   
    183. D(C  23,C  19,N   7,C  20)     40.5102         0.026367   
    184. D(H  39,C  20,N   7,C  19)    153.2389         0.016098   
    185. D(H  38,C  20,N   7,H  42)    139.7460         0.016098   
    186. D(H  38,C  20,N   7,C  19)    -89.1740         0.016098   
    187. D(C  26,C  20,N   7,H  42)   -100.2546         0.016098   
    188. D(C  26,C  20,N   7,C  19)     30.8254         0.016098   
    189. D(H  40,C  21,C  17,C  22)    177.2593         0.025259   
    190. D(H  40,C  21,C  17,C  16)     -7.8826         0.025259   
    191. D(C  23,C  21,C  17,C  22)     -4.6486         0.025259   
    192. D(C  23,C  21,C  17,C  16)    170.2094         0.025259   
    193. D(H  41,C  22,C  17,C  21)    179.9247         0.025353   
    194. D(H  41,C  22,C  17,C  16)      5.2887         0.025353   
    195. D(C  24,C  22,C  17,C  21)      5.9436         0.025353   
    196. D(C  24,C  22,C  17,C  16)   -168.6925         0.025353   
    197. D(H  43,C  23,C  21,H  40)     -0.3357         0.030823   
    198. D(H  43,C  23,C  21,C  17)   -178.3939         0.030823   
    199. D(C  19,C  23,C  21,H  40)    174.7726         0.030823   
    200. D(C  19,C  23,C  21,C  17)     -3.2856         0.030823   
    201. D(H  43,C  23,C  19,C  24)   -175.1301         0.024433   
    202. D(H  43,C  23,C  19,N   7)      6.7894         0.024433   
    203. D(C  21,C  23,C  19,C  24)      9.7728         0.024433   
    204. D(C  21,C  23,C  19,N   7)   -168.3078         0.024433   
    205. D(C  19,C  24,C  22,C  17)      0.6807         0.030328   
    206. D(H  44,C  24,C  19,C  23)    176.9093         0.025148   
    207. D(H  44,C  24,C  19,N   7)     -4.9956         0.025148   
    208. D(C  22,C  24,C  19,C  23)     -8.5058         0.025148   
    209. D(C  19,C  24,C  22,H  41)   -173.4473         0.030328   
    210. D(C  22,C  24,C  19,N   7)    169.5893         0.025148   
    211. D(H  44,C  24,C  22,H  41)      1.1208         0.030328   
    212. D(H  44,C  24,C  22,C  17)    175.2489         0.030328   
    213. D(O   4,C  25,C  15,H  35)     76.3077         0.011484   
    214. D(O   4,C  25,C  15,C  14)    -43.2922         0.011484   
    215. D(O   3,C  25,C  15,H  36)     13.0988         0.011484   
    216. D(O   3,C  25,C  15,H  35)   -104.5390         0.011484   
    217. D(O   3,C  25,C  15,C  14)    135.8612         0.011484   
    218. D(C  15,C  25,O   3,H  48)   -169.0809         0.045151   
    219. D(O   4,C  25,O   3,H  48)     10.0721         0.045151   
    220. D(C  28,C  26,C  20,N   7)   -143.4952         0.011701   
    221. D(N   8,C  26,C  20,H  39)    -93.9811         0.011701   
    222. D(N   8,C  26,C  20,H  38)    147.4623         0.011701   
    223. D(N   8,C  26,C  20,N   7)     26.6978         0.011701   
    224. D(C  28,C  26,N   8,C  27)     10.5308         0.039787   
    225. D(C  28,C  26,C  20,H  38)    -22.7307         0.011701   
    226. D(C  20,C  26,N   8,C  27)   -160.2085         0.039787   
    227. D(C  30,C  27,N   8,C  26)    171.9660         0.037676   
    228. D(C  29,C  27,N   8,C  26)      2.2761         0.037676   
    229. D(H  45,C  28,C  26,C  20)    -21.7241         0.023856   
    230. D(H  45,C  28,C  26,N   8)    168.4260         0.023856   
    231. D(N   9,C  28,C  26,C  20)    157.0842         0.023856   
    232. D(N   9,C  28,C  26,N   8)    -12.7658         0.023856   
    233. D(H  45,C  28,N   9,C  29)    179.8242         0.043004   
    234. D(C  26,C  28,N   9,C  29)      0.9542         0.043004   
    235. D(N  11,C  29,C  27,N   8)    163.5982         0.021596   
    236. D(N   9,C  29,C  27,C  30)    176.3602         0.021596   
    237. D(N   9,C  29,C  27,N   8)    -13.9942         0.021596   
    238. D(C  27,C  29,N  11,C  31)     -1.1206         0.031473   
    239. D(N   9,C  29,N  11,C  31)    176.4772         0.031473   
    240. D(C  27,C  29,N   9,C  28)     11.8336         0.033307   
    241. D(N  11,C  29,C  27,C  30)     -6.0475         0.021596   
    242. D(N  11,C  29,N   9,C  28)   -165.8507         0.033307   
    243. D(N  10,C  30,C  27,N   8)   -162.1431         0.016288   
    244. D(O   5,C  30,C  27,C  29)   -175.0982         0.016288   
    245. D(O   5,C  30,C  27,N   8)     15.1059         0.016288   
    246. D(C  27,C  30,N  10,H  47)    172.0821         0.030580   
    247. D(C  27,C  30,N  10,C  31)     -3.0945         0.030580   
    248. D(O   5,C  30,N  10,H  47)     -5.3068         0.030580   
    249. D(N  10,C  30,C  27,C  29)      7.6529         0.016288   
    250. D(O   5,C  30,N  10,C  31)    179.5166         0.030580   
    251. D(N  11,C  31,N  12,H  50)    158.0151         0.040272   
    252. D(N  11,C  31,N  12,H  49)     11.6932         0.040272   
    253. D(N  10,C  31,N  12,H  50)    -25.0198         0.040272   
    254. D(N  10,C  31,N  12,H  49)   -171.3418         0.040272   
    255. D(N  12,C  31,N  11,C  29)   -177.0288         0.046149   
    256. D(N  10,C  31,N  11,C  29)      6.2464         0.046149   
    257. D(N  12,C  31,N  10,H  47)      3.8594         0.030387   
    258. D(N  12,C  31,N  10,C  30)    179.0477         0.030387   
    259. D(N  11,C  31,N  10,H  47)   -179.2818         0.030387   
    260. D(N  11,C  31,N  10,C  30)     -4.0935         0.030387   
    -----------------------------------------------------------------

Number of atoms                         .... 51
Number of degrees of freedom            .... 260


         *************************************************************
         *                GEOMETRY OPTIMIZATION CYCLE   1            *
         *************************************************************
---------------------------------
CARTESIAN COORDINATES (ANGSTROEM)
---------------------------------
  O      3.482027   -0.049902   -3.624094
  O      2.967761   -0.001832   -1.060871
  O      4.800358    1.224209   -2.337730
  O      4.820856    3.862006   -0.401084
  O      2.681477    4.469423   -0.572698
  O      4.579086    2.852309    1.997744
  N      1.946318    1.928005   -1.384633
  N      1.517709    0.916503    4.975922
  N      3.980917    0.881177    3.952120
  N      5.242783   -1.551958    3.667943
  N      5.437494    1.185524    0.720970
  N      5.850397   -1.000254    1.505418
  N      6.307439   -0.432457   -0.667758
  C      2.474238    1.891829   -2.731785
  C      2.782761    3.299165   -3.260668
  C      3.946588    4.018992   -2.574954
  C      2.271069    0.908381   -0.580971
  C      1.835661    0.919244    0.815572
  C      3.684986    0.937953   -2.741865
  C      1.485320    0.893374    3.593296
  C      2.493424    0.063749    5.646041
  C      1.829998   -0.287151    1.523442
  C      1.530383    2.099111    1.501043
  C      1.624937   -0.307441    2.881206
  C      1.352275    2.080611    2.864700
  C      3.731576    4.151711   -1.079986
  C      3.730807   -0.105446    4.791105
  C      4.778012    0.655196    2.917094
  C      4.479592   -1.292128    4.699807
  C      5.313938   -0.638757    2.688330
  C      4.918260    1.681884    1.893324
  C      5.843824   -0.117632    0.549862
  H      1.726668    1.429735   -3.394573
  H      2.999099    3.220919   -4.327280
  H      1.875502    3.895972   -3.139083
  H      4.031233    5.023713   -2.994899
  H      4.884212    3.490365   -2.737992
  H      1.460366    2.751235   -1.063348
  H      2.059241   -0.924678    5.833314
  H      2.735735    0.510163    6.612919
  H      2.021528   -1.203739    0.985682
  H      1.524613    3.051308    0.993280
  H      1.530457    1.866214    5.323577
  H      1.650463   -1.247270    3.411295
  H      1.193312    3.008613    3.393426
  H      4.441896   -2.050770    5.471348
  H      4.249577   -0.639283   -3.656820
  H      5.457888    1.800434   -0.092546
  H      4.662837    3.771974    0.588270
  H      6.473804   -1.412461   -0.825108
  H      5.977669    0.138314   -1.444548

----------------------------
CARTESIAN COORDINATES (A.U.)
----------------------------
  NO LB      ZA    FRAG     MASS         X           Y           Z
   0 O     8.0000    0    15.999    6.580077   -0.094302   -6.848545
   1 O     8.0000    0    15.999    5.608256   -0.003463   -2.004755
   2 O     8.0000    0    15.999    9.071362    2.313420   -4.417670
   3 O     8.0000    0    15.999    9.110098    7.298134   -0.757939
   4 O     8.0000    0    15.999    5.067258    8.445986   -1.082242
   5 O     8.0000    0    15.999    8.653219    5.390083    3.775189
   6 N     7.0000    0    14.007    3.678008    3.643402   -2.616578
   7 N     7.0000    0    14.007    2.868055    1.731939    9.403130
   8 N     7.0000    0    14.007    7.522843    1.665183    7.468424
   9 N     7.0000    0    14.007    9.907424   -2.932775    6.931408
  10 N     7.0000    0    14.007   10.275375    2.240316    1.362436
  11 N     7.0000    0    14.007   11.055649   -1.890207    2.844828
  12 N     7.0000    0    14.007   11.919333   -0.817225   -1.261881
  13 C     6.0000    0    12.011    4.675632    3.575039   -5.162326
  14 C     6.0000    0    12.011    5.258656    6.234517   -6.161770
  15 C     6.0000    0    12.011    7.457971    7.594795   -4.865959
  16 C     6.0000    0    12.011    4.291698    1.716591   -1.097875
  17 C     6.0000    0    12.011    3.468896    1.737120    1.541207
  18 C     6.0000    0    12.011    6.963614    1.772475   -5.181374
  19 C     6.0000    0    12.011    2.806848    1.688232    6.790345
  20 C     6.0000    0    12.011    4.711888    0.120468   10.669471
  21 C     6.0000    0    12.011    3.458196   -0.542637    2.878889
  22 C     6.0000    0    12.011    2.892005    3.966745    2.836560
  23 C     6.0000    0    12.011    3.070686   -0.580980    5.444689
  24 C     6.0000    0    12.011    2.555429    3.931786    5.413498
  25 C     6.0000    0    12.011    7.051656    7.845597   -2.040878
  26 C     6.0000    0    12.011    7.050204   -0.199264    9.053876
  27 C     6.0000    0    12.011    9.029134    1.238142    5.512509
  28 C     6.0000    0    12.011    8.465202   -2.441768    8.881349
  29 C     6.0000    0    12.011   10.041887   -1.207075    5.080207
  30 C     6.0000    0    12.011    9.294164    3.178299    3.577863
  31 C     6.0000    0    12.011   11.043228   -0.222292    1.039088
  32 H     1.0000    0     1.008    3.262930    2.701808   -6.414813
  33 H     1.0000    0     1.008    5.667476    6.086656   -8.177374
  34 H     1.0000    0     1.008    3.544186    7.362321   -5.932008
  35 H     1.0000    0     1.008    7.617926    9.493441   -5.659540
  36 H     1.0000    0     1.008    9.229822    6.595834   -5.174055
  37 H     1.0000    0     1.008    2.759691    5.199080   -2.009436
  38 H     1.0000    0     1.008    3.891402   -1.747388   11.023367
  39 H     1.0000    0     1.008    5.169790    0.964069   12.496606
  40 H     1.0000    0     1.008    3.820135   -2.274736    1.862670
  41 H     1.0000    0     1.008    2.881101    5.766136    1.877028
  42 H     1.0000    0     1.008    2.892145    3.526634   10.060103
  43 H     1.0000    0     1.008    3.118924   -2.356998    6.446413
  44 H     1.0000    0     1.008    2.255033    5.685455    6.412646
  45 H     1.0000    0     1.008    8.393966   -3.875393   10.339350
  46 H     1.0000    0     1.008    8.030537   -1.208069   -6.910389
  47 H     1.0000    0     1.008   10.313914    3.402327   -0.174887
  48 H     1.0000    0     1.008    8.811485    7.127997    1.111670
  49 H     1.0000    0     1.008   12.233717   -2.669164   -1.559228
  50 H     1.0000    0     1.008   11.296157    0.261376   -2.729800

--------------------------------
INTERNAL COORDINATES (ANGSTROEM)
--------------------------------
 O      0   0   0     0.000000000000     0.00000000     0.00000000
 O      1   0   0     2.614745202988     0.00000000     0.00000000
 O      1   2   0     2.239662774785    62.75953712     0.00000000
 O      3   1   2     3.272459480952   143.33563311   295.26166806
 O      4   3   1     2.230549069270    99.66947942   359.12612718
 O      4   3   1     2.613870174427   103.36577376    96.66991284
 N      2   1   3     2.207360853507    87.89682298    79.78734782
 N      6   4   3     4.689234560353   143.38973879   284.62988870
 N      8   6   4     2.667735295076    32.74663985   138.78015100
 N      9   8   6     2.755577227306   118.30032774   213.13978532
 N      6   4   3     2.268300835432    74.47109089    23.26791211
 N     10   9   8     2.313025862534    90.34967073   132.54178714
 N     12  10   9     2.292155523148   176.25778854   303.19612385
 C      7   2   1     1.447351516255    86.89777223   351.38917548
 C     14   7   2     1.534762623267   111.78650650   212.81038486
 C     15  14   7     1.530637039574   115.44875121    68.23708955
 C      2   1   3     1.242647435452   120.15337152    84.13422907
 C     17   2   1     1.462883468800   122.75091749   173.65287668
 C      3   1   2     1.220378331082    30.50078466   302.91334131
 C      8   6   4     1.383198872974    52.21816091    27.79960442
 C      8   6   4     1.458858195407    95.53193387   148.86904871
 C     18  17   2     1.398750301392   118.54986720   339.63567496
 C     18  17   2     1.398266999959   122.63226809   154.27466062
 C     22  18  17     1.373310977226   120.91004153   170.20943071
 C     23  18  17     1.375363583448   120.19733216   191.30749602
 C      5   4   3     1.208713830703    29.24338248   309.79770564
 C      9   8   6     1.319043542711    65.84082871   184.05693960
 C      9   8   6     1.325785044959   148.98076907   290.40233822
 C     10   9   8     1.309471129525    58.44189662   322.47934508
 C     10   9   8     1.341134458692    59.89306633   137.11485041
 C      6   4   3     1.223044690494   105.40623171    19.96544236
 C     12  10   9     1.300828023151   147.91811254     1.85520109
 H     14   7   2     1.100762828283   108.85717864    93.21884828
 H     15  14   7     1.091139689551   108.11690368   190.21596428
 H     15  14   7     1.092739859277   107.19155427   306.66816936
 H     16  15  14     1.092236892721   108.61927899   183.19886256
 H     16  15  14     1.088652842414   111.06461292    63.57714102
 H      7   2   1     1.008503988598   152.86158866   183.97956321
 H     21   8   6     1.095706430754   109.92486061   220.94695259
 H     21   8   6     1.092178683259   108.42779969   103.35984629
 H     22  18  17     1.079815726635   118.64344390   352.11741175
 H     23  18  17     1.079136270257   121.00085012     5.28865575
 H      8   6   4     1.011423968085    79.77266386   260.77421240
 H     24  22  18     1.079316153669   119.66368305   181.60612953
 H     25  23  18     1.079818747062   119.53667897   175.24885190
 H     29  10   9     1.082697189744   116.28234933   185.08607621
 H      1   2   3     0.968284161687   101.55030749    77.22842212
 H     11   6   4     1.019970250946    90.77417009     1.48804250
 H      4   3   1     1.005931480804   120.59201476    91.48026468
 H     13  12  32     1.006401407983    86.55892662   190.57416223
 H     13  12  32     1.018788418458   142.85645513   326.36090847

---------------------------
INTERNAL COORDINATES (A.U.)
---------------------------
 O      0   0   0     0.000000000000     0.00000000     0.00000000
 O      1   0   0     4.941152343632     0.00000000     0.00000000
 O      1   2   0     4.232349276681    62.75953712     0.00000000
 O      3   1   2     6.184052203353   143.33563311   295.26166806
 O      4   3   1     4.215126869193    99.66947942   359.12612718
 O      4   3   1     4.939498779291   103.36577376    96.66991284
 N      2   1   3     4.171307491867    87.89682298    79.78734782
 N      6   4   3     8.861369096786   143.38973879   284.62988870
 N      8   6   4     5.041289105489    32.74663985   138.78015100
 N      9   8   6     5.207286300478   118.30032774   213.13978532
 N      6   4   3     4.286467368312    74.47109089    23.26791211
 N     10   9   8     4.370985420866    90.34967073   132.54178714
 N     12  10   9     4.331546195104   176.25778854   303.19612385
 C      7   2   1     2.735097985238    86.89777223   351.38917548
 C     14   7   2     2.900281038554   111.78650650   212.81038486
 C     15  14   7     2.892484815230   115.44875121    68.23708955
 C      2   1   3     2.348263334025   120.15337152    84.13422907
 C     17   2   1     2.764449121872   122.75091749   173.65287668
 C      3   1   2     2.306180825517    30.50078466   302.91334131
 C      8   6   4     2.613867058670    52.21816091    27.79960442
 C      8   6   4     2.756842457545    95.53193387   148.86904871
 C     18  17   2     2.643254999371   118.54986720   339.63567496
 C     18  17   2     2.642341692022   122.63226809   154.27466062
 C     22  18  17     2.595181643664   120.91004153   170.20943071
 C     23  18  17     2.599060507285   120.19733216   191.30749602
 C      5   4   3     2.284138114312    29.24338248   309.79770564
 C      9   8   6     2.492631054442    65.84082871   184.05693960
 C      9   8   6     2.505370647422   148.98076907   290.40233822
 C     10   9   8     2.474541815079    58.44189662   322.47934508
 C     10   9   8     2.534376835693    59.89306633   137.11485041
 C      6   4   3     2.311219514580   105.40623171    19.96544236
 C     12  10   9     2.458208711085   147.91811254     1.85520109
 H     14   7   2     2.080140283856   108.85717864    93.21884828
 H     15  14   7     2.061955187104   108.11690368   190.21596428
 H     15  14   7     2.064979069653   107.19155427   306.66816936
 H     16  15  14     2.064028600608   108.61927899   183.19886256
 H     16  15  14     2.057255727077   111.06461292    63.57714102
 H      7   2   1     1.905796343417   152.86158866   183.97956321
 H     21   8   6     2.070585077302   109.92486061   220.94695259
 H     21   8   6     2.063918600666   108.42779969   103.35984629
 H     22  18  17     2.040555998442   118.64344390   352.11741175
 H     23  18  17     2.039272011966   121.00085012     5.28865575
 H      8   6   4     1.911314304965    79.77266386   260.77421240
 H     24  22  18     2.039611942351   119.66368305   181.60612953
 H     25  23  18     2.040561706221   119.53667897   175.24885190
 H     29  10   9     2.046001174582   116.28234933   185.08607621
 H      1   2   3     1.829791885402   101.55030749    77.22842212
 H     11   6   4     1.927464439034    90.77417009     1.48804250
 H      4   3   1     1.900935008210   120.59201476    91.48026468
 H     13  12  32     1.901823041880    86.55892662   190.57416223
 H     13  12  32     1.925231099296   142.85645513   326.36090847

---------------------
BASIS SET INFORMATION
---------------------
There are 4 groups of distinct atoms

 Group   1 Type O   : 11s6p2d contracted to 5s3p2d pattern {62111/411/11}
 Group   2 Type N   : 11s6p1d contracted to 5s3p1d pattern {62111/411/1}
 Group   3 Type C   : 11s6p1d contracted to 5s3p1d pattern {62111/411/1}
 Group   4 Type H   : 5s contracted to 3s pattern {311}

Atom   0O    basis set group =>   1
Atom   1O    basis set group =>   1
Atom   2O    basis set group =>   1
Atom   3O    basis set group =>   1
Atom   4O    basis set group =>   1
Atom   5O    basis set group =>   1
Atom   6N    basis set group =>   2
Atom   7N    basis set group =>   2
Atom   8N    basis set group =>   2
Atom   9N    basis set group =>   2
Atom  10N    basis set group =>   2
Atom  11N    basis set group =>   2
Atom  12N    basis set group =>   2
Atom  13C    basis set group =>   3
Atom  14C    basis set group =>   3
Atom  15C    basis set group =>   3
Atom  16C    basis set group =>   3
Atom  17C    basis set group =>   3
Atom  18C    basis set group =>   3
Atom  19C    basis set group =>   3
Atom  20C    basis set group =>   3
Atom  21C    basis set group =>   3
Atom  22C    basis set group =>   3
Atom  23C    basis set group =>   3
Atom  24C    basis set group =>   3
Atom  25C    basis set group =>   3
Atom  26C    basis set group =>   3
Atom  27C    basis set group =>   3
Atom  28C    basis set group =>   3
Atom  29C    basis set group =>   3
Atom  30C    basis set group =>   3
Atom  31C    basis set group =>   3
Atom  32H    basis set group =>   4
Atom  33H    basis set group =>   4
Atom  34H    basis set group =>   4
Atom  35H    basis set group =>   4
Atom  36H    basis set group =>   4
Atom  37H    basis set group =>   4
Atom  38H    basis set group =>   4
Atom  39H    basis set group =>   4
Atom  40H    basis set group =>   4
Atom  41H    basis set group =>   4
Atom  42H    basis set group =>   4
Atom  43H    basis set group =>   4
Atom  44H    basis set group =>   4
Atom  45H    basis set group =>   4
Atom  46H    basis set group =>   4
Atom  47H    basis set group =>   4
Atom  48H    basis set group =>   4
Atom  49H    basis set group =>   4
Atom  50H    basis set group =>   4
---------------------------------
AUXILIARY/J BASIS SET INFORMATION
---------------------------------
There are 4 groups of distinct atoms

 Group   1 Type O   : 8s3p3d contracted to 6s3p3d pattern {311111/111/111}
 Group   2 Type N   : 8s3p3d contracted to 6s3p3d pattern {311111/111/111}
 Group   3 Type C   : 8s3p3d contracted to 6s3p3d pattern {311111/111/111}
 Group   4 Type H   : 5s2p contracted to 3s1p pattern {311/2}

Atom   0O    basis set group =>   1
Atom   1O    basis set group =>   1
Atom   2O    basis set group =>   1
Atom   3O    basis set group =>   1
Atom   4O    basis set group =>   1
Atom   5O    basis set group =>   1
Atom   6N    basis set group =>   2
Atom   7N    basis set group =>   2
Atom   8N    basis set group =>   2
Atom   9N    basis set group =>   2
Atom  10N    basis set group =>   2
Atom  11N    basis set group =>   2
Atom  12N    basis set group =>   2
Atom  13C    basis set group =>   3
Atom  14C    basis set group =>   3
Atom  15C    basis set group =>   3
Atom  16C    basis set group =>   3
Atom  17C    basis set group =>   3
Atom  18C    basis set group =>   3
Atom  19C    basis set group =>   3
Atom  20C    basis set group =>   3
Atom  21C    basis set group =>   3
Atom  22C    basis set group =>   3
Atom  23C    basis set group =>   3
Atom  24C    basis set group =>   3
Atom  25C    basis set group =>   3
Atom  26C    basis set group =>   3
Atom  27C    basis set group =>   3
Atom  28C    basis set group =>   3
Atom  29C    basis set group =>   3
Atom  30C    basis set group =>   3
Atom  31C    basis set group =>   3
Atom  32H    basis set group =>   4
Atom  33H    basis set group =>   4
Atom  34H    basis set group =>   4
Atom  35H    basis set group =>   4
Atom  36H    basis set group =>   4
Atom  37H    basis set group =>   4
Atom  38H    basis set group =>   4
Atom  39H    basis set group =>   4
Atom  40H    basis set group =>   4
Atom  41H    basis set group =>   4
Atom  42H    basis set group =>   4
Atom  43H    basis set group =>   4
Atom  44H    basis set group =>   4
Atom  45H    basis set group =>   4
Atom  46H    basis set group =>   4
Atom  47H    basis set group =>   4
Atom  48H    basis set group =>   4
Atom  49H    basis set group =>   4
Atom  50H    basis set group =>   4


           ************************************************************
           *        Program running with 16 parallel MPI-processes    *
           *              working on a common directory               *
           ************************************************************
------------------------------------------------------------------------------
                             ORCA STARTUP CALCULATIONS
                           -- RI-GTO INTEGRALS CHOSEN --
------------------------------------------------------------------------------
------------------------------------------------------------------------------
                   ___                                                        
                  /   \      - P O W E R E D   B Y -                         
                 /     \                                                     
                 |  |  |   _    _      __       _____    __    __             
                 |  |  |  | |  | |    /  \     |  _  \  |  |  /  |          
                  \  \/   | |  | |   /    \    | | | |  |  | /  /          
                 / \  \   | |__| |  /  /\  \   | |_| |  |  |/  /          
                |  |  |   |  __  | /  /__\  \  |    /   |      \           
                |  |  |   | |  | | |   __   |  |    \   |  |\   \          
                \     /   | |  | | |  |  |  |  | |\  \  |  | \   \       
                 \___/    |_|  |_| |__|  |__|  |_| \__\ |__|  \__/        
                                                                              
                      - O R C A' S   B I G   F R I E N D -                    
                                      &                                       
                       - I N T E G R A L  F E E D E R -                       
                                                                              
 v1 FN, 2020, v2 2021, v3 2022-2024                                           
------------------------------------------------------------------------------


----------------------
SHARK INTEGRAL PACKAGE
----------------------

Number of atoms                             ...     51
Number of basis functions                   ...    695
Number of shells                            ...    351
Maximum angular momentum                    ...      2
Integral batch strategy                     ... SHARK/LIBINT Hybrid
RI-J (if used) integral strategy            ... SPLIT-RIJ (Revised 2003 algorithm where possible)
Printlevel                                  ...      1
Contraction scheme used                     ... SEGMENTED contraction
Prescreening option                         ... SCHWARTZ
   Thresh                                   ... 2.500e-11
   Tcut                                     ... 2.500e-12
   Tpresel                                  ... 2.500e-12 
Coulomb Range Separation                    ... NOT USED
Exchange Range Separation                   ... NOT USED
Multipole approximations                    ... NOT USED
Finite Nucleus Model                        ... NOT USED
CABS basis                                  ... NOT available
Auxiliary Coulomb fitting basis             ... AVAILABLE
   # of basis functions in Aux-J            ...   1074
   # of shells in Aux-J                     ...    460
   Maximum angular momentum in Aux-J        ...      2
Auxiliary J/K fitting basis                 ... NOT available
Auxiliary Correlation fitting basis         ... NOT available
Auxiliary 'external' fitting basis          ... NOT available

Checking pre-screening integrals            ... done (  0.0 sec) Dimension = 351
Check shell pair data                       ... done (  0.0 sec)
Shell pair information
Shell pair cut-off parameter TPreSel        ...   2.5e-12
Total number of shell pairs                 ...     61776
Shell pairs after pre-screening             ...     44521
Total number of primitive shell pairs       ...    230264
Primitive shell pairs kept                  ...    100303
          la=0 lb=0:  15535 shell pairs
          la=1 lb=0:  16029 shell pairs
          la=1 lb=1:   4038 shell pairs
          la=2 lb=0:   5467 shell pairs
          la=2 lb=1:   2919 shell pairs
          la=2 lb=2:    533 shell pairs

Calculating one electron integrals          ... done (  0.0 sec)
Calculating RI/J V-Matrix + Cholesky decomp.... done (  0.0 sec)
Calculating Nuclear repulsion               ... done (  0.0 sec) ENN=   3616.998604197383 Eh

Diagonalization of the overlap matrix:
Smallest eigenvalue                        ... 7.030e-06
Time for diagonalization                   ...    0.056 sec
Threshold for overlap eigenvalues          ... 1.000e-07
Number of eigenvalues below threshold      ... 0
Time for construction of square roots      ...    0.036 sec
Total time needed                          ...    0.098 sec

-------------------
DFT GRID GENERATION
-------------------

General Integration Accuracy     IntAcc      ... 4.959
Radial Grid Type                 RadialGrid  ... OptM3 with GC (2021)
Angular Grid (max. ang.)         AngularGrid ... 6 (Lebedev-590)
Angular grid pruning method      GridPruning ... 4 (adaptive)
Weight generation scheme         WeightScheme... mBecke (2022)
Basis function cutoff            BFCut       ... 1.0000e-11
Integration weight cutoff        WCut        ... 1.0000e-14
Partially contracted basis set               ... off
Rotationally invariant grid construction     ... off
Angular grids for H and He will be reduced by one unit
Diffuse basis detected: some atoms will have their outermost
                        angular grid increased by 1.

Total number of grid points                  ...   612720
Total number of batches                      ...     9601
Average number of points per batch           ...       63
Average number of grid points per atom       ...    12014
Initializing property integral containers    ... done (  0.0 sec)

SHARK setup successfully completed in   5.8 seconds

Maximum memory used throughout the entire STARTUP-calculation: 159.5 MB


           ************************************************************
           *        Program running with 16 parallel MPI-processes    *
           *              working on a common directory               *
           ************************************************************
-------------------------------------------------------------------------------
                                 ORCA GUESS
                   Start orbitals & Density for SCF / CASSCF
-------------------------------------------------------------------------------

------------
SCF SETTINGS
------------
Hamiltonian:
 Density Functional     Method          .... DFT(GTOs)
 Exchange Functional    Exchange        .... B973C
 Correlation Functional Correlation     .... B973C
 Gradients option       PostSCFGGA      .... off
 RI-approximation to the Coulomb term is turned on
   Number of AuxJ basis functions       .... 1074


General Settings:
 Integral files         IntName         .... m1_00_Vitamin_B9-GFN2_0000-B97-3C-TZ
 Hartree-Fock type      HFTyp           .... RHF
 Total Charge           Charge          ....    0
 Multiplicity           Mult            ....    1
 Number of Electrons    NEL             ....  230
 Basis Dimension        Dim             ....  695
 Nuclear Repulsion      ENuc            ....   3616.9986041974 Eh

Convergence Acceleration:
 AO-DIIS                CNVDIIS         .... on
   Start iteration      DIISMaxIt       ....    12
   Startup error        DIISStart       ....  0.200000
   # of expansion vecs  DIISMaxEq       ....     5
   Bias factor          DIISBfac        ....   1.050
   Max. coefficient     DIISMaxC        ....  10.000
 MO-DIIS                CNVKDIIS        .... off
 Trust-Rad. Augm. Hess. CNVTRAH         .... off
 SOSCF                  CNVSOSCF        .... on
   Start iteration      SOSCFMaxIt      ....   150
   Startup grad/error   SOSCFStart      ....  0.003300
   Hessian update       SOSCFHessUp     .... L-BFGS
 Level Shifting         CNVShift        .... on
   Level shift para.    LevelShift      ....    0.2500
   Turn off err/grad.   ShiftErr        ....    0.0010
 Zerner damping         CNVZerner       .... off
 Static damping         CNVDamp         .... on
   Fraction old density DampFac         ....    0.7000
   Max. Damping (<1)    DampMax         ....    0.9800
   Min. Damping (>=0)   DampMin         ....    0.0000
   Turn off err/grad.   DampErr         ....    0.1000

SCF Procedure:
 Maximum # iterations   MaxIter         ....   800
 SCF integral mode      SCFMode         .... Direct
   Integral package                     .... SHARK and LIBINT hybrid scheme
 Reset frequency        DirectResetFreq ....    20
 Integral Threshold     Thresh          ....  2.500e-11 Eh
 Primitive CutOff       TCut            ....  2.500e-12 Eh

Convergence Tolerance:
 Convergence Check Mode ConvCheckMode   .... Total+1el-Energy
 Convergence forced     ConvForced      .... 0
 Energy Change          TolE            ....  1.000e-08 Eh
 1-El. energy change                    ....  1.000e-05 Eh
 Orbital Gradient       TolG            ....  1.000e-05
 Orbital Rotation angle TolX            ....  1.000e-05
 DIIS Error             TolErr          ....  5.000e-07

--------------------------------
INITIAL GUESS: MINIMAL BASIS EHT
--------------------------------
The minimal basis has 179 functions
EHT matrix was diagonalized
Basis set overlap was calculated now projecting the orbitals
Using GuessMode=FMatrix for the initial guess
C*T matrix was formed
Effective Fockian was calculated
Effective Fockian was diagonalized
Initial density was built
                      ------------------
                      INITIAL GUESS DONE
                      ------------------
             **** ENERGY FILE WAS UPDATED (m1_00_Vitamin_B9-GFN2_0000-B97-3C-TZ.en.tmp) ****
Finished Guess after   0.6 sec
Maximum memory used throughout the entire GUESS-calculation: 77.2 MB


           ************************************************************
           *        Program running with 16 parallel MPI-processes    *
           *              working on a common directory               *
           ************************************************************

-------------------------------------------------------------------------------------------
                                      ORCA LEAN-SCF
                              memory conserving SCF solver
-------------------------------------------------------------------------------------------

----------------------------------------D-I-I-S--------------------------------------------
Iteration    Energy (Eh)           Delta-E    RMSDP     MaxDP     DIISErr   Damp  Time(sec)
-------------------------------------------------------------------------------------------
               ***  Starting incremental Fock matrix formation  ***
    1    -1563.3805919672040545     0.00e+00  6.31e-03  7.53e-01  4.71e-01  0.700   2.2
Warning: op=0 Small HOMO/LUMO gap (   0.048) - skipping pre-diagonalization
         Will do a full diagonalization
    2    -1565.5278946700300367    -2.15e+00  4.51e-03  4.72e-01  3.32e-01  0.700   2.4
    3    -1566.5953989637164341    -1.07e+00  2.46e-03  8.74e-02  2.41e-01  0.700   2.2
                               ***Turning on AO-DIIS***
    4    -1567.3411305124145656    -7.46e-01  1.91e-03  1.31e-01  1.71e-01  0.700   2.2
    5    -1567.8676633419709106    -5.27e-01  1.33e-03  8.64e-02  1.16e-01  0.700   2.2
    6    -1568.2387780428816768    -3.71e-01  8.96e-04  4.75e-02  8.00e-02  0.700   2.1
    7    -1568.5014916383443051    -2.63e-01  2.21e-03  1.07e-01  5.57e-02  0.000   2.1
    8    -1569.1094672383187572    -6.08e-01  4.72e-04  5.35e-02  2.27e-02  0.000   2.2
    9    -1569.1143825276840289    -4.92e-03  1.31e-04  7.53e-03  1.16e-02  0.000   2.1
   10    -1569.1146171727377805    -2.35e-04  6.69e-05  8.33e-03  6.60e-03  0.000   2.1
                              *** Initializing SOSCF ***
---------------------------------------S-O-S-C-F--------------------------------------
Iteration    Energy (Eh)           Delta-E    RMSDP     MaxDP     MaxGrad    Time(sec)
--------------------------------------------------------------------------------------
   11    -1569.1148790823808667    -2.62e-04  3.29e-05  3.93e-03  1.12e-03     2.2
               *** Restarting incremental Fock matrix formation ***
   12    -1569.1148932512260217    -1.42e-05  3.68e-05  3.66e-03  1.73e-04     2.3
   13    -1569.1148864351998782     6.82e-06  1.56e-05  9.24e-04  4.80e-04     2.0
   14    -1569.1148953317951964    -8.90e-06  1.81e-05  2.03e-03  4.30e-05     1.9
   15    -1569.1148945153772729     8.16e-07  7.66e-06  7.01e-04  9.89e-05     1.9
   16    -1569.1148954781610882    -9.63e-07  9.55e-06  7.97e-04  1.63e-05     1.9
   17    -1569.1148953803358381     9.78e-08  5.50e-06  5.43e-04  4.11e-05     1.9
   18    -1569.1148955057733474    -1.25e-07  1.71e-05  2.01e-03  3.67e-06     1.9
   19    -1569.1148955124363056    -6.66e-09  6.52e-06  8.36e-04  1.09e-05     1.9
                 **** Energy Check signals convergence ****

               *****************************************************
               *                     SUCCESS                       *
               *           SCF CONVERGED AFTER  19 CYCLES          *
               *****************************************************

             **** ENERGY FILE WAS UPDATED (m1_00_Vitamin_B9-GFN2_0000-B97-3C-TZ.en.tmp) ****

----------------
TOTAL SCF ENERGY
----------------

Total Energy       :      -1569.11489551243631 Eh          -42697.78702 eV

Components:
Nuclear Repulsion  :       3616.99860419738252 Eh           98423.53578 eV
Electronic Energy  :      -5186.11349970981883 Eh         -141121.32280 eV
One Electron Energy:      -9341.20334229623040 Eh         -254187.06556 eV
Two Electron Energy:       4155.08984258641158 Eh          113065.74277 eV

Virial components:
Potential Energy   :      -3133.08688361435816 Eh          -85255.62842 eV
Kinetic Energy     :       1563.97198810192185 Eh           42557.84140 eV
Virial Ratio       :          2.00328836286688

DFT components:
N(Alpha)           :      114.999916910903 electrons
N(Beta)            :      114.999916910903 electrons
N(Total)           :      229.999833821806 electrons
E(XC)              :     -209.238480438796 Eh       

---------------
SCF CONVERGENCE
---------------

  Last Energy change         ...    6.6630e-09  Tolerance :   1.0000e-08
  Last MAX-Density change    ...    8.3640e-04  Tolerance :   1.0000e-07
  Last RMS-Density change    ...    6.5212e-06  Tolerance :   5.0000e-09
  Last DIIS Error            ...    1.1230e-03  Tolerance :   5.0000e-07
  Last Orbital Gradient      ...    1.0942e-05  Tolerance :   1.0000e-05
  Last Orbital Rotation      ...    1.7281e-05  Tolerance :   1.0000e-05


----------------
ORBITAL ENERGIES
----------------

  NO   OCC          E(Eh)            E(eV) 
   0   2.0000     -18.791780      -511.3503 
   1   2.0000     -18.779556      -511.0177 
   2   2.0000     -18.735043      -509.8064 
   3   2.0000     -18.732326      -509.7325 
   4   2.0000     -18.730863      -509.6927 
   5   2.0000     -18.727991      -509.6146 
   6   2.0000     -14.048292      -382.2735 
   7   2.0000     -14.026838      -381.6897 
   8   2.0000     -14.012148      -381.2899 
   9   2.0000     -14.010882      -381.2555 
  10   2.0000     -14.001490      -380.9999 
  11   2.0000     -13.993069      -380.7708 
  12   2.0000     -13.972747      -380.2178 
  13   2.0000     -10.036983      -273.1202 
  14   2.0000     -10.015600      -272.5383 
  15   2.0000     -10.011332      -272.4222 
  16   2.0000     -10.008940      -272.3571 
  17   2.0000      -9.995582      -271.9936 
  18   2.0000      -9.965821      -271.1838 
  19   2.0000      -9.958490      -270.9843 
  20   2.0000      -9.946026      -270.6451 
  21   2.0000      -9.940645      -270.4987 
  22   2.0000      -9.940022      -270.4817 
  23   2.0000      -9.939064      -270.4557 
  24   2.0000      -9.938032      -270.4276 
  25   2.0000      -9.919081      -269.9119 
  26   2.0000      -9.905721      -269.5484 
  27   2.0000      -9.901383      -269.4303 
  28   2.0000      -9.900627      -269.4098 
  29   2.0000      -9.899097      -269.3681 
  30   2.0000      -9.893757      -269.2228 
  31   2.0000      -9.892205      -269.1806 
  32   2.0000      -1.033044       -28.1106 
  33   2.0000      -1.022516       -27.8241 
  34   2.0000      -0.989079       -26.9142 
  35   2.0000      -0.980171       -26.6718 
  36   2.0000      -0.943375       -25.6705 
  37   2.0000      -0.940323       -25.5875 
  38   2.0000      -0.935161       -25.4470 
  39   2.0000      -0.918457       -24.9925 
  40   2.0000      -0.881737       -23.9933 
  41   2.0000      -0.870182       -23.6788 
  42   2.0000      -0.849776       -23.1236 
  43   2.0000      -0.844365       -22.9763 
  44   2.0000      -0.821710       -22.3599 
  45   2.0000      -0.788707       -21.4618 
  46   2.0000      -0.748967       -20.3804 
  47   2.0000      -0.729016       -19.8375 
  48   2.0000      -0.703098       -19.1323 
  49   2.0000      -0.691220       -18.8091 
  50   2.0000      -0.679189       -18.4817 
  51   2.0000      -0.655861       -17.8469 
  52   2.0000      -0.643662       -17.5149 
  53   2.0000      -0.622413       -16.9367 
  54   2.0000      -0.612507       -16.6672 
  55   2.0000      -0.592882       -16.1331 
  56   2.0000      -0.580100       -15.7853 
  57   2.0000      -0.565594       -15.3906 
  58   2.0000      -0.560240       -15.2449 
  59   2.0000      -0.550137       -14.9700 
  60   2.0000      -0.543529       -14.7902 
  61   2.0000      -0.537220       -14.6185 
  62   2.0000      -0.527191       -14.3456 
  63   2.0000      -0.501120       -13.6362 
  64   2.0000      -0.500897       -13.6301 
  65   2.0000      -0.484203       -13.1758 
  66   2.0000      -0.481274       -13.0961 
  67   2.0000      -0.476204       -12.9582 
  68   2.0000      -0.462920       -12.5967 
  69   2.0000      -0.460697       -12.5362 
  70   2.0000      -0.456398       -12.4192 
  71   2.0000      -0.449122       -12.2212 
  72   2.0000      -0.439901       -11.9703 
  73   2.0000      -0.437568       -11.9068 
  74   2.0000      -0.435191       -11.8421 
  75   2.0000      -0.426065       -11.5938 
  76   2.0000      -0.421436       -11.4679 
  77   2.0000      -0.413806       -11.2602 
  78   2.0000      -0.411844       -11.2069 
  79   2.0000      -0.409507       -11.1433 
  80   2.0000      -0.399926       -10.8825 
  81   2.0000      -0.396291       -10.7836 
  82   2.0000      -0.393537       -10.7087 
  83   2.0000      -0.387893       -10.5551 
  84   2.0000      -0.383355       -10.4316 
  85   2.0000      -0.379146       -10.3171 
  86   2.0000      -0.376616       -10.2482 
  87   2.0000      -0.365872        -9.9559 
  88   2.0000      -0.364760        -9.9256 
  89   2.0000      -0.360141        -9.7999 
  90   2.0000      -0.356022        -9.6879 
  91   2.0000      -0.352599        -9.5947 
  92   2.0000      -0.344706        -9.3799 
  93   2.0000      -0.337360        -9.1800 
  94   2.0000      -0.333217        -9.0673 
  95   2.0000      -0.326815        -8.8931 
  96   2.0000      -0.320947        -8.7334 
  97   2.0000      -0.307964        -8.3801 
  98   2.0000      -0.301617        -8.2074 
  99   2.0000      -0.286537        -7.7971 
 100   2.0000      -0.282552        -7.6886 
 101   2.0000      -0.274805        -7.4778 
 102   2.0000      -0.273851        -7.4519 
 103   2.0000      -0.259495        -7.0612 
 104   2.0000      -0.258243        -7.0272 
 105   2.0000      -0.251343        -6.8394 
 106   2.0000      -0.248457        -6.7609 
 107   2.0000      -0.241291        -6.5659 
 108   2.0000      -0.237981        -6.4758 
 109   2.0000      -0.233224        -6.3463 
 110   2.0000      -0.232168        -6.3176 
 111   2.0000      -0.225788        -6.1440 
 112   2.0000      -0.209567        -5.7026 
 113   2.0000      -0.199339        -5.4243 
 114   2.0000      -0.184096        -5.0095 
 115   0.0000      -0.097039        -2.6406 
 116   0.0000      -0.066423        -1.8075 
 117   0.0000      -0.063077        -1.7164 
 118   0.0000      -0.034663        -0.9432 
 119   0.0000      -0.031633        -0.8608 
 120   0.0000      -0.024123        -0.6564 
 121   0.0000      -0.014209        -0.3866 
 122   0.0000       0.003747         0.1020 
 123   0.0000       0.011511         0.3132 
 124   0.0000       0.017561         0.4779 
 125   0.0000       0.020890         0.5684 
*Only the first 10 virtual orbitals were printed.

                    ********************************
                    * MULLIKEN POPULATION ANALYSIS *
                    ********************************

-----------------------
MULLIKEN ATOMIC CHARGES
-----------------------
   0 O :   -0.466818
   1 O :   -0.467618
   2 O :   -0.552528
   3 O :   -0.508347
   4 O :   -0.444478
   5 O :   -0.513227
   6 N :   -0.372376
   7 N :   -0.298021
   8 N :   -0.023099
   9 N :   -0.048340
  10 N :   -0.399100
  11 N :   -0.158034
  12 N :   -0.633668
  13 C :    0.050724
  14 C :   -0.414968
  15 C :   -0.196694
  16 C :    0.211919
  17 C :   -0.011523
  18 C :    0.330373
  19 C :    0.139781
  20 C :   -0.480910
  21 C :   -0.067118
  22 C :   -0.034810
  23 C :   -0.233442
  24 C :   -0.250950
  25 C :    0.367402
  26 C :    0.154964
  27 C :    0.068931
  28 C :   -0.179491
  29 C :   -0.091311
  30 C :    0.312519
  31 C :    0.377812
  32 H :    0.176932
  33 H :    0.194250
  34 H :    0.198171
  35 H :    0.194999
  36 H :    0.175557
  37 H :    0.394748
  38 H :    0.214968
  39 H :    0.204443
  40 H :    0.198495
  41 H :    0.158427
  42 H :    0.323380
  43 H :    0.156552
  44 H :    0.166806
  45 H :    0.164505
  46 H :    0.421215
  47 H :    0.389410
  48 H :    0.389063
  49 H :    0.344770
  50 H :    0.365754
Sum of atomic charges:   -0.0000000

--------------------------------
MULLIKEN REDUCED ORBITAL CHARGES
--------------------------------
  0 O s       :     3.762473  s :     3.762473
      pz      :     1.613774  p :     4.666771
      px      :     1.624420
      py      :     1.428577
      dz2     :     0.007771  d :     0.037575
      dxz     :     0.007974
      dyz     :     0.002570
      dx2y2   :     0.003973
      dxy     :     0.015288

  1 O s       :     3.848911  s :     3.848911
      pz      :     1.651843  p :     4.588774
      px      :     1.458141
      py      :     1.478790
      dz2     :     0.010162  d :     0.029933
      dxz     :     0.003815
      dyz     :     0.001181
      dx2y2   :     0.003440
      dxy     :     0.011334

  2 O s       :     3.839130  s :     3.839130
      pz      :     1.586980  p :     4.662878
      px      :     1.354744
      py      :     1.721154
      dz2     :     0.008791  d :     0.050519
      dxz     :     0.011476
      dyz     :     0.013847
      dx2y2   :     0.009389
      dxy     :     0.007015

  3 O s       :     3.757691  s :     3.757691
      pz      :     1.411225  p :     4.722848
      px      :     1.573314
      py      :     1.738309
      dz2     :     0.002799  d :     0.027809
      dxz     :     0.003210
      dyz     :     0.004845
      dx2y2   :     0.013177
      dxy     :     0.003778

  4 O s       :     3.840161  s :     3.840161
      pz      :     1.701019  p :     4.570196
      px      :     1.414201
      py      :     1.454976
      dz2     :     0.004904  d :     0.034121
      dxz     :     0.003108
      dyz     :     0.007372
      dx2y2   :     0.011460
      dxy     :     0.007278

  5 O s       :     3.875136  s :     3.875136
      pz      :     1.777978  p :     4.608684
      px      :     1.509958
      py      :     1.320748
      dz2     :     0.009162  d :     0.029406
      dxz     :     0.003011
      dyz     :     0.002088
      dx2y2   :     0.008385
      dxy     :     0.006760

  6 N s       :     3.316637  s :     3.316637
      pz      :     1.165244  p :     4.014595
      px      :     1.558063
      py      :     1.291288
      dz2     :     0.009575  d :     0.041143
      dxz     :     0.007800
      dyz     :     0.011499
      dx2y2   :     0.004873
      dxy     :     0.007395

  7 N s       :     3.367866  s :     3.367866
      pz      :     1.141885  p :     3.886639
      px      :     1.562808
      py      :     1.181946
      dz2     :     0.013277  d :     0.043516
      dxz     :     0.007730
      dyz     :     0.008768
      dx2y2   :     0.009141
      dxy     :     0.004598

  8 N s       :     3.475048  s :     3.475048
      pz      :     1.008434  p :     3.499185
      px      :     1.150842
      py      :     1.339909
      dz2     :     0.009904  d :     0.048866
      dxz     :     0.008964
      dyz     :     0.012462
      dx2y2   :     0.009895
      dxy     :     0.007642

  9 N s       :     3.490015  s :     3.490015
      pz      :     0.992334  p :     3.511990
      px      :     1.163050
      py      :     1.356606
[...]
114:   1442.56   0.001568    7.93  0.000339  ( 0.015426  0.009134 -0.004230)
115:   1446.41   0.000218    1.10  0.000047  (-0.006614 -0.001504  0.001011)
116:   1475.48   0.002103   10.63  0.000445  ( 0.018822 -0.008252  0.004744)
117:   1485.49   0.011628   58.76  0.002443  ( 0.010964 -0.033684  0.034466)
118:   1489.52   0.008564   43.28  0.001794  (-0.021835  0.002265  0.036227)
119:   1497.56   0.021062  106.44  0.004389  ( 0.032982 -0.014710 -0.055540)
120:   1509.78   0.001484    7.50  0.000307  ( 0.009989 -0.007123  0.012497)
121:   1519.24   0.009403   47.52  0.001931  (-0.006466  0.013829 -0.041211)
122:   1528.25   0.039981  202.05  0.008164  ( 0.022028  0.035692 -0.080030)
123:   1540.03   0.015682   79.25  0.003178  (-0.007669  0.039724 -0.039255)
124:   1558.00   0.020999  106.12  0.004206  ( 0.025136  0.048268 -0.035276)
125:   1578.75   0.033658  170.10  0.006653  ( 0.023729  0.011994 -0.077111)
126:   1606.98   0.009875   49.90  0.001918  ( 0.003956 -0.011985 -0.041933)
127:   1634.42   0.010206   51.58  0.001949  ( 0.022071  0.030537 -0.023000)
128:   1642.48   0.093145  470.71  0.017697  (-0.013715 -0.011911  0.131784)
129:   1671.91   0.008149   41.18  0.001521  (-0.006122 -0.028868 -0.025498)
130:   1688.73   0.116316  587.81  0.021494  ( 0.047223 -0.090070 -0.105601)
131:   1700.88   0.071050  359.06  0.013036  ( 0.019683 -0.106560  0.035963)
132:   1741.13   0.019475   98.42  0.003490  ( 0.056983  0.007867 -0.013475)
133:   1756.81   0.064362  325.26  0.011433  ( 0.084297 -0.009993  0.065014)
134:   3003.52   0.012240   61.85  0.001272  (-0.002096 -0.013685  0.032864)
135:   3007.17   0.002275   11.50  0.000236  (-0.005894 -0.002872 -0.013898)
136:   3016.66   0.002501   12.64  0.000259  (-0.011898 -0.009401 -0.005363)
137:   3028.06   0.010038   50.73  0.001034  ( 0.011330 -0.013093  0.027105)
138:   3042.51   0.002958   14.95  0.000303  (-0.000950 -0.010939 -0.013520)
139:   3066.19   0.203739  1029.61  0.020736  ( 0.018834 -0.078938  0.118952)
140:   3067.34   0.010699   54.07  0.001089  (-0.010063  0.023033 -0.021372)
141:   3079.46   0.004434   22.41  0.000449  ( 0.006920  0.009413 -0.017687)
142:   3098.19   0.002424   12.25  0.000244  ( 0.012540 -0.005674 -0.007394)
143:   3124.82   0.003257   16.46  0.000325  (-0.004479  0.009012  0.014965)
144:   3145.84   0.001695    8.56  0.000168  (-0.002672  0.007141 -0.010486)
145:   3153.21   0.001508    7.62  0.000149  ( 0.004304 -0.010388  0.004774)
146:   3161.73   0.000959    4.85  0.000095  ( 0.000826  0.007727 -0.005854)
147:   3461.94   0.005616   28.38  0.000506  (-0.008931 -0.012503 -0.016437)
148:   3473.22   0.080218  405.39  0.007207  ( 0.018326 -0.031031  0.076868)
149:   3542.17   0.002361   11.93  0.000208  (-0.002079  0.008853  0.011194)
150:   3555.05   0.019510   98.60  0.001713  ( 0.010756  0.039948  0.001034)
151:   3614.32   0.017339   87.63  0.001497  (-0.020060  0.030409 -0.013038)
152:   3679.63   0.009607   48.55  0.000815  ( 0.016763 -0.014982 -0.017587)

* The epsilon (eps) is given for a Dirac delta lineshape.
** The dipole moment derivative (T) already includes vibrational overlap.

The first frequency considered to be a vibration is 6
The total number of vibrations considered is 147


--------------------------
THERMOCHEMISTRY AT 298.15K
--------------------------

Temperature         ...   298.15 K
Pressure            ...     1.00 atm
Total Mass          ...   441.40 AMU
Quasi RRHO          ...     True
Cut-Off Frequency   ...     1.00 cm^-1

Throughout the following assumptions are being made:
  (1) The electronic state is orbitally nondegenerate
  (2) There are no thermally accessible electronically excited states
  (3) Hindered rotations indicated by low frequency modes are not
      treated as such but are treated as vibrations and this may
      cause some error
  (4) All equations used are the standard statistical mechanics
      equations for an ideal gas
  (5) All vibrations are strictly harmonic

freq.      27.54  E(vib)   ...       0.55 
freq.      37.96  E(vib)   ...       0.54 
freq.      50.06  E(vib)   ...       0.52 
freq.      56.27  E(vib)   ...       0.52 
freq.      58.93  E(vib)   ...       0.51 
freq.      64.57  E(vib)   ...       0.50 
freq.      89.29  E(vib)   ...       0.47 
freq.      96.95  E(vib)   ...       0.46 
freq.      99.67  E(vib)   ...       0.46 
freq.     103.87  E(vib)   ...       0.46 
freq.     118.15  E(vib)   ...       0.44 
freq.     128.80  E(vib)   ...       0.43 
freq.     139.58  E(vib)   ...       0.42 
freq.     155.10  E(vib)   ...       0.40 
freq.     164.25  E(vib)   ...       0.39 
freq.     167.60  E(vib)   ...       0.38 
freq.     177.39  E(vib)   ...       0.37 
freq.     198.34  E(vib)   ...       0.35 
freq.     205.18  E(vib)   ...       0.35 
freq.     246.74  E(vib)   ...       0.31 
freq.     253.45  E(vib)   ...       0.30 
freq.     270.04  E(vib)   ...       0.29 
freq.     285.67  E(vib)   ...       0.28 
freq.     300.31  E(vib)   ...       0.26 
freq.     319.92  E(vib)   ...       0.25 
freq.     339.27  E(vib)   ...       0.23 
freq.     353.08  E(vib)   ...       0.22 
freq.     378.08  E(vib)   ...       0.21 
freq.     379.17  E(vib)   ...       0.21 
freq.     401.97  E(vib)   ...       0.19 
freq.     410.80  E(vib)   ...       0.19 
freq.     423.87  E(vib)   ...       0.18 
freq.     432.13  E(vib)   ...       0.18 
freq.     455.43  E(vib)   ...       0.16 
freq.     473.62  E(vib)   ...       0.15 
freq.     478.87  E(vib)   ...       0.15 
freq.     497.35  E(vib)   ...       0.14 
freq.     512.68  E(vib)   ...       0.13 
freq.     516.61  E(vib)   ...       0.13 
freq.     542.53  E(vib)   ...       0.12 
freq.     558.63  E(vib)   ...       0.12 
freq.     568.17  E(vib)   ...       0.11 
freq.     578.79  E(vib)   ...       0.11 
freq.     591.02  E(vib)   ...       0.10 
freq.     595.21  E(vib)   ...       0.10 
freq.     614.00  E(vib)   ...       0.10 
freq.     635.06  E(vib)   ...       0.09 
freq.     647.16  E(vib)   ...       0.09 
freq.     654.15  E(vib)   ...       0.08 
freq.     665.21  E(vib)   ...       0.08 
freq.     677.25  E(vib)   ...       0.08 
freq.     680.36  E(vib)   ...       0.08 
freq.     691.96  E(vib)   ...       0.07 
freq.     704.28  E(vib)   ...       0.07 
freq.     714.50  E(vib)   ...       0.07 
freq.     724.91  E(vib)   ...       0.06 
freq.     734.69  E(vib)   ...       0.06 
freq.     738.61  E(vib)   ...       0.06 
freq.     744.55  E(vib)   ...       0.06 
freq.     760.22  E(vib)   ...       0.06 
freq.     794.07  E(vib)   ...       0.05 
freq.     803.10  E(vib)   ...       0.05 
freq.     809.03  E(vib)   ...       0.05 
freq.     816.54  E(vib)   ...       0.05 
freq.     835.28  E(vib)   ...       0.04 
freq.     841.27  E(vib)   ...       0.04 
freq.     868.23  E(vib)   ...       0.04 
freq.     876.73  E(vib)   ...       0.04 
freq.     890.10  E(vib)   ...       0.04 
freq.     913.13  E(vib)   ...       0.03 
freq.     931.60  E(vib)   ...       0.03 
freq.     945.74  E(vib)   ...       0.03 
freq.     946.86  E(vib)   ...       0.03 
freq.     956.00  E(vib)   ...       0.03 
freq.     968.17  E(vib)   ...       0.03 
freq.     997.65  E(vib)   ...       0.02 
freq.    1022.95  E(vib)   ...       0.02 
freq.    1030.69  E(vib)   ...       0.02 
freq.    1046.42  E(vib)   ...       0.02 
freq.    1063.35  E(vib)   ...       0.02 
freq.    1069.40  E(vib)   ...       0.02 
freq.    1109.47  E(vib)   ...       0.02 
freq.    1125.90  E(vib)   ...       0.01 
freq.    1143.30  E(vib)   ...       0.01 
freq.    1151.44  E(vib)   ...       0.01 
freq.    1172.45  E(vib)   ...       0.01 
freq.    1175.92  E(vib)   ...       0.01 
freq.    1187.03  E(vib)   ...       0.01 
freq.    1216.43  E(vib)   ...       0.01 
freq.    1218.49  E(vib)   ...       0.01 
freq.    1225.63  E(vib)   ...       0.01 
freq.    1235.00  E(vib)   ...       0.01 
freq.    1250.33  E(vib)   ...       0.01 
freq.    1269.23  E(vib)   ...       0.01 
freq.    1284.98  E(vib)   ...       0.01 
freq.    1296.68  E(vib)   ...       0.01 
freq.    1309.97  E(vib)   ...       0.01 
freq.    1318.96  E(vib)   ...       0.01 
freq.    1332.31  E(vib)   ...       0.01 
freq.    1339.49  E(vib)   ...       0.01 
freq.    1342.25  E(vib)   ...       0.01 
freq.    1350.85  E(vib)   ...       0.01 
freq.    1361.41  E(vib)   ...       0.01 
freq.    1368.40  E(vib)   ...       0.01 
freq.    1377.10  E(vib)   ...       0.01 
freq.    1380.63  E(vib)   ...       0.01 
freq.    1404.45  E(vib)   ...       0.00 
freq.    1419.85  E(vib)   ...       0.00 
freq.    1442.56  E(vib)   ...       0.00 
freq.    1446.41  E(vib)   ...       0.00 
freq.    1475.48  E(vib)   ...       0.00 
freq.    1485.49  E(vib)   ...       0.00 
freq.    1489.52  E(vib)   ...       0.00 
freq.    1497.56  E(vib)   ...       0.00 
freq.    1509.78  E(vib)   ...       0.00 
freq.    1519.24  E(vib)   ...       0.00 
freq.    1528.25  E(vib)   ...       0.00 
freq.    1540.03  E(vib)   ...       0.00 
freq.    1558.00  E(vib)   ...       0.00 
freq.    1578.75  E(vib)   ...       0.00 
freq.    1606.98  E(vib)   ...       0.00 
freq.    1634.42  E(vib)   ...       0.00 
freq.    1642.48  E(vib)   ...       0.00 
freq.    1671.91  E(vib)   ...       0.00 
freq.    1688.73  E(vib)   ...       0.00 
freq.    1700.88  E(vib)   ...       0.00 
freq.    1741.13  E(vib)   ...       0.00 
freq.    1756.81  E(vib)   ...       0.00 
freq.    3003.52  E(vib)   ...       0.00 
freq.    3007.17  E(vib)   ...       0.00 
freq.    3016.66  E(vib)   ...       0.00 
freq.    3028.06  E(vib)   ...       0.00 
freq.    3042.51  E(vib)   ...       0.00 
freq.    3066.19  E(vib)   ...       0.00 
freq.    3067.34  E(vib)   ...       0.00 
freq.    3079.46  E(vib)   ...       0.00 
freq.    3098.19  E(vib)   ...       0.00 
freq.    3124.82  E(vib)   ...       0.00 
freq.    3145.84  E(vib)   ...       0.00 
freq.    3153.21  E(vib)   ...       0.00 
freq.    3161.73  E(vib)   ...       0.00 
freq.    3461.94  E(vib)   ...       0.00 
freq.    3473.22  E(vib)   ...       0.00 
freq.    3542.17  E(vib)   ...       0.00 
freq.    3555.05  E(vib)   ...       0.00 
freq.    3614.32  E(vib)   ...       0.00 
freq.    3679.63  E(vib)   ...       0.00 

------------
INNER ENERGY
------------

The inner energy is: U= E(el) + E(ZPE) + E(vib) + E(rot) + E(trans)
    E(el)   - is the total energy from the electronic structure calculation
              = E(kin-el) + E(nuc-el) + E(el-el) + E(nuc-nuc)
    E(ZPE)  - the the zero temperature vibrational energy from the frequency calculation
    E(vib)  - the the finite temperature correction to E(ZPE) due to population
              of excited vibrational states
    E(rot)  - is the rotational thermal energy
    E(trans)- is the translational thermal energy

Summary of contributions to the inner energy U:
Electronic energy                ...  -1569.48546491 Eh
Zero point energy                ...      0.38801649 Eh     243.48 kcal/mol
Thermal vibrational correction   ...      0.02458395 Eh      15.43 kcal/mol
Thermal rotational correction    ...      0.00141627 Eh       0.89 kcal/mol
Thermal translational correction ...      0.00141627 Eh       0.89 kcal/mol
-----------------------------------------------------------------------
Total thermal energy                  -1569.07003192 Eh


Summary of corrections to the electronic energy:
(perhaps to be used in another calculation)
Total thermal correction                  0.02741650 Eh      17.20 kcal/mol
Non-thermal (ZPE) correction              0.38801649 Eh     243.48 kcal/mol
-----------------------------------------------------------------------
Total correction                          0.41543299 Eh     260.69 kcal/mol


--------
ENTHALPY
--------

The enthalpy is H = U + kB*T
                kB is Boltzmann's constant
Total thermal energy              ...  -1569.07003192 Eh 
Thermal Enthalpy correction       ...      0.00094421 Eh       0.59 kcal/mol
-----------------------------------------------------------------------
Total Enthalpy                    ...  -1569.06908771 Eh


Note: Only C1 symmetry has been detected, increase convergence thresholds 
      if your molecule has a higher symmetry. Symmetry factor of 1.0 is   
      used for the rotational entropy correction. 
 

Note: Rotational entropy computed according to Herzberg 
Infrared and Raman Spectra, Chapter V,1, Van Nostrand Reinhold, 1945 
Point Group:  C1, Symmetry Number:   1  
Rotational constants in cm-1:     0.008223     0.003918     0.003543 

Vibrational entropy computed according to the QRRHO of S. Grimme
Chem.Eur.J. 2012 18 9955 using a reference frequency of 100.0 cm-1


-------
ENTROPY
-------

The entropy contributions are T*S = T*(S(el)+S(vib)+S(rot)+S(trans))
     S(el)   - electronic entropy
     S(vib)  - vibrational entropy
     S(rot)  - rotational entropy
     S(trans)- translational entropy
The entropies will be listed as multiplied by the temperature to get
units of energy

Electronic entropy                ...      0.00000000 Eh      0.00 kcal/mol
Vibrational entropy               ...      0.04309797 Eh     27.04 kcal/mol
Rotational entropy                ...      0.01705745 Eh     10.70 kcal/mol
Translational entropy             ...      0.02097411 Eh     13.16 kcal/mol
-----------------------------------------------------------------------
Final entropy term                ...      0.08112954 Eh     50.91 kcal/mol

In case the symmetry of your molecule has not been determined correctly
or in case you have a reason to use a different symmetry number we print 
out the resulting rotational entropy values for sn=1,12:

 non-linear molecules -----------------------------------
|  sn= 1 | S(rot)=       0.01705745 Eh     10.70 kcal/mol|
|  sn= 2 | S(rot)=       0.01640300 Eh     10.29 kcal/mol|
|  sn= 3 | S(rot)=       0.01602016 Eh     10.05 kcal/mol|
|  sn= 4 | S(rot)=       0.01574854 Eh      9.88 kcal/mol|
|  sn= 5 | S(rot)=       0.01553785 Eh      9.75 kcal/mol|
|  sn= 6 | S(rot)=       0.01536571 Eh      9.64 kcal/mol|
|  sn= 7 | S(rot)=       0.01522016 Eh      9.55 kcal/mol|
|  sn= 8 | S(rot)=       0.01509408 Eh      9.47 kcal/mol|
|  sn= 9 | S(rot)=       0.01498288 Eh      9.40 kcal/mol|
|  sn=10 | S(rot)=       0.01488340 Eh      9.34 kcal/mol|
|  sn=11 | S(rot)=       0.01479341 Eh      9.28 kcal/mol|
|  sn=12 | S(rot)=       0.01471125 Eh      9.23 kcal/mol|
 linear molecules ---------------------------------------
|  Dinfh | S(rot)=       0.01065352 Eh      6.69 kcal/mol|
|  Cinfv | S(rot)=       0.01130797 Eh      7.10 kcal/mol|
 --------------------------------------------------------


-------------------
GIBBS FREE ENERGY
-------------------

The Gibbs free energy is G = H - T*S

Total enthalpy                    ...  -1569.06908771 Eh 
Total entropy correction          ...     -0.08112954 Eh    -50.91 kcal/mol
-----------------------------------------------------------------------
Final Gibbs free energy         ...  -1569.15021725 Eh

For completeness - the Gibbs free energy minus the electronic energy
G-E(el)                           ...      0.33524766 Eh    210.37 kcal/mol


Maximum memory used throughout the entire PROP-calculation: 200.3 MB

--------------------------------
SUGGESTED CITATIONS FOR THIS RUN
--------------------------------

Below you find a list of papers that are relevant to this ORCA run
We neither can nor want to force you to cite these papers, but we appreciate if you do
You receive ORCA, which is the product of decades of hard work by many enthusiastic individuals, for free
The only thing we kindly ask in return is that you cite our papers,
We deeply appreciate it, if you show your appreciation for ORCA by not just citing the generic ORCA reference.

Please note that relegating all ORCA citations to the supporting information does *not* help us.
SI sections are not indexed - citations you put there will not count into any citation statistics
But we need these citations in order to attract the funding resources that allow us to do what we are doing

Therefore, if you are a happy ORCA user, please consider citing a few of the papers listed below in the main body of your paper

In addition to the list printed below, the program has created the file m1_00_Vitamin_B9-GFN2_0000-B97-3C-TZ.bibtex that contains the list in bibtex format
You can import this file easily into all common literature databanks and citation aid programs


List of essential papers. We consider these as the minimum necessary citations

  1. Neese,F.
     Software update: the ORCA program system, version 5.0
     WIRES Comput. Molec. Sci., 2022 12(1)e1606
     doi.org/10.1002/wcms.1606

List of papers to cite with high priority. The work reported in these papers was absolutely
necessary for this run to complete.
Our perspective: the developers of density functionals and basis sets usually get cited in chemistry papers
Good! But without the algorithms to do something with them, the functionals or basis sets would not do anything.
Hence, in our opinion, the algorithm design and method developments papers are equally worthy of getting cited

  1. Neese,F.
     An improvement of the resolution of the identity approximation for the formation of the Coulomb matrix
     J. Comp. Chem., 2003 24(14)1740-1747
     doi.org/10.1002/jcc.10318
  2. Bykov,D.; Petrenko,T.; Izsak,R.; Kossmann,S.; Becker,U.; Valeev,E.; Neese,F.
     Efficient implementation of the analytic second derivatives of Hartree-Fock and hybrid DFT energies: a detailed analysis of different approximations
     Molec. Phys., 2015 113 1961-1977
     doi.org/10.1080/00268976.2015.1025114
  3. Neese,F.
     The SHARK Integral Generation and Digestion System
     J. Comp. Chem., 2022  1-16
     doi.org/10.1002/jcc.26942
  4. Grimme,S.; Antony,J.; Ehrlich,S.; Krieg,H.
     A consistent and accurate ab initio parametrization of density functional dispersion correction (DFT-D) for the 94 elements H-Pu
     J. Chem. Phys., 2010 132 154104
     doi.org/10.1063/1.3382344
  5. Grimme,S.; Ehrlich,S.; Goerigk,L.
     Effect of the damping function in dispersion corrected density functional theory
     J. Comput. Chem., 2011 32(7)1456-1465
     doi.org/10.1002/jcc.21759

List of suggested additional citations. These are papers that are important in the 'surrounding' of 
of this run, or papers that preceded the highly important papers. If you like your results we are grateful for a citation.

  1. Neese,F.
     The ORCA program system
     WIRES Comput. Molec. Sci., 2012 2(1)73-78
     doi.org/10.1002/wcms.81
  2. Neese,F.
     Software update: the ORCA program system, version 4.0
     WIRES Comput. Molec. Sci., 2018 8(1)1-6
     doi.org/10.1002/wcms.1327
  3. Neese,F.; Wennmohs,F.; Becker,U.; Riplinger,C.
     The ORCA quantum chemistry program package
     J. Chem. Phys., 2020 152 Art. No. L224108
     doi.org/10.1063/5.0004608

List of optional additional citations

  1. Neese,F.
     Approximate second-order SCF convergence for spin unrestricted wavefunctions
     Chem. Phys. Lett., 2000 325(1-3)93-98
     doi.org/10.1016/s0009-2614(00)00662-x

Timings for individual modules:

Sum of individual times          ...     1922.842 sec (=  32.047 min)
Startup calculation              ...      132.227 sec (=   2.204 min)   6.9 %
SCF iterations                   ...      566.005 sec (=   9.433 min)  29.4 %
Property integrals               ...      330.721 sec (=   5.512 min)  17.2 %
SCF Response                     ...      520.622 sec (=   8.677 min)  27.1 %
Property calculations            ...      111.736 sec (=   1.862 min)   5.8 %
SCF Gradient evaluation          ...      261.189 sec (=   4.353 min)  13.6 %
Geometry relaxation              ...        0.341 sec (=   0.006 min)   0.0 %
                             ****ORCA TERMINATED NORMALLY****
TOTAL RUN TIME: 0 days 0 hours 32 minutes 7 seconds 620 msec
