
                                 *****************
                                 * O   R   C   A *
                                 *****************

                                            #,                                       
                                            ###                                      
                                            ####                                     
                                            #####                                    
                                            ######                                   
                                           ########,                                 
                                     ,,################,,,,,                         
                               ,,#################################,,                 
                          ,,##########################################,,             
                       ,#########################################, ''#####,          
                    ,#############################################,,   '####,        
                  ,##################################################,,,,####,       
                ,###########''''           ''''###############################       
              ,#####''   ,,,,##########,,,,          '''####'''          '####       
            ,##' ,,,,###########################,,,                        '##       
           ' ,,###''''                  '''############,,,                           
         ,,##''                                '''############,,,,        ,,,,,,###''
      ,#''                                            '''#######################'''  
     '                                                          ''''####''''         
             ,#######,   #######,   ,#######,      ##                                
            ,#'     '#,  ##    ##  ,#'     '#,    #''#        ,####,   ,####,        
            ##       ##  ##   ,#'  ##            #'  '#       #'       #'  '#        
            ##       ##  #######   ##           ,######,      #####,   #    #        
            '#,     ,#'  ##    ##  '#,     ,#' ,#      #,     #,   #   #,  ,#        
             '#######'   ##     ##  '#######'  #'      '#     '####' # '####'        



                #########################################################
                #                        -***-                          #
                #          Department of theory and spectroscopy        #
                #                                                       #
                #                      Frank Neese                      #
                #                                                       #
                #     Directorship, Architecture, Infrastructure        #
                #                    SHARK, DRIVERS                     #
                #        Core code/Algorithms in most modules           #
                #                                                       #
                #        Max Planck Institute fuer Kohlenforschung      #
                #                Kaiser Wilhelm Platz 1                 #
                #                 D-45470 Muelheim/Ruhr                 #
                #                      Germany                          #
                #                                                       #
                #                  All rights reserved                  #
                #                        -***-                          #
                #########################################################


                         Program Version 6.0.1  -  RELEASE   -


 With contributions from (in alphabetic order):
[Max-Planck-Institut fuer Kohlenforschung]                               
  Daniel Aravena         : Magnetic Suceptibility                        
  Michael Atanasov       : Ab Initio Ligand Field Theory (pilot matlab implementation)
  Alexander A. Auer      : GIAO ZORA, VPT2 properties, NMR spectrum      
  Ute Becker             : All parallelization in ORCA, NUMFREQ, NUMCALC 
  Giovanni Bistoni       : ED, misc. LED, open-shell LED, HFLD           
  Martin Brehm           : Molecular dynamics                            
  Dmytro Bykov           : pre 5.0 version of the SCF Hessian            
  Marcos Casanova-Páez   : Triplet and SCS-CIS(D). UHF-(DLPNO)-IP/EA/STEOM-CCSD. UHF-CVS-IP/STEOM-CCSD   
  Vijay G. Chilkuri      : MRCI spin determinant printing, contributions to CSF-ICE 
  Pauline Colinet        : FMM embedding                                 
  Dipayan Datta          : RHF DLPNO-CCSD density                        
  Achintya Kumar Dutta   : EOM-CC, STEOM-CC                              
  Nicolas Foglia         : Exact transition moments, OPA infrastructure, MCD improvements    
  Dmitry Ganyushin       : Spin-Orbit,Spin-Spin,Magnetic field MRCI      
  Miquel Garcia-Rates    : C-PCM and meta-GGA Hessian, CCSD/C-PCM, Gaussian charge scheme 
  Tiago L. C. Gouveia    : GS-ROHF, GS-ROCIS                             
  Yang Guo               : DLPNO-NEVPT2, F12-NEVPT2, CIM, IAO-localization        
  Andreas Hansen         : Spin unrestricted coupled pair/coupled cluster methods 
  Ingolf Harden          : AUTO-CI MPn and infrastructure                
  Benjamin Helmich-Paris : MC-RPA, TRAH-(SCF,CASSCF), AVAS, COSX integrals, SCF dyn. polar. 
  Lee Huntington         : MR-EOM, pCC                                   
  Robert Izsak           : Overlap fitted RIJCOSX, COSX-SCS-MP3, EOM     
  Riya Kayal             : Wick's Theorem for AUTO-CI, AUTO-CI UHF-CCSDT 
  Emily Kempfer          : AUTO-CI, RHF CISDT and CCSDT                  
  Christian Kollmar      : KDIIS, OOCD, Brueckner-CCSD(T), CCSD density, CASPT2, CASPT2-K, improved NEVPT2 
  Axel Koslowski         : Symmetry handling                             
  Simone Kossmann        : meta-GGA functionals, TD-DFT gradient, OOMP2, (MP2 Hessian; deprecated post 5.0) 
  Lucas Lang             : DCDCAS                                        
  Marvin Lechner         : AUTO-CI (C++ implementation), FIC-MRCC        
  Spencer Leger          : CASSCF response                               
  Dagmar Lenk            : GEPOL surface, SMD, ORCA-2-JSON               
  Dimitrios Liakos       : Extrapolation schemes; Compound Job, initial MDCI parallelization 
  Dimitrios Manganas     : Further ROCIS development; embedding schemes. LFT, Crystal Embedding 
  Dimitrios Pantazis     : SARC Basis sets                               
  Anastasios Papadopoulos: AUTO-CI, single reference methods and gradients 
  Taras Petrenko         : pre 6.0 DFT Hessian and TD-DFT gradient, (ASA, deprecated), ECA, 1-Electron XAS/XES, NRVS 
  Peter Pinski           : DLPNO-MP2, DLPNO-MP2 Gradient                 
  Christoph Reimann      : Effective Core Potentials                     
  Marius Retegan         : Local ZFS, SOC                                
  Christoph Riplinger    : Optimizer, TS searches, QM/MM, DLPNO-CCSD(T), (RO)-DLPNO pert. Triples 
  Michael Roemelt        : Original ROCIS implementation                 
  Masaaki Saitow         : Open-shell DLPNO-CCSD energy and density      
  Barbara Sandhoefer     : DKH picture change effects                    
  Kantharuban Sivalingam : CASSCF convergence/infrastructure, NEVPT2 and variants, FIC-MRCI 
  Bernardo de Souza      : ESD, SOC TD-DFT                               
  Georgi L. Stoychev     : AutoAux, RI-MP2 NMR, DLPNO-MP2 response, X2C  
  Van Anh Tran           : RI-MP2 g-tensors                              
  Willem Van den Heuvel  : Paramagnetic NMR                              
  Zikuan Wang            : NOTCH, Electric field optimization            
  Frank Wennmohs         : Technical directorship and infrastructure     
  Hang Xu                : AUTO-CI-Response properties                   
                                                                         
[FACCTs GmbH]                                                            
  Markus Bursch, Miquel Garcia-Rates, Christoph Riplinger, Bernardo de Souza, Georgi L. Stoychev 
                                                                 
  APM, Basis sets (HGBS, AHGBS, def-TZVP (Ac-Lr), def2-XVPD (La-Lu)), CI-OPT, improved COSX, DLPNO-Multilevel,           
  DOCKER, DRACO, updates on ESD, GOAT, IRC, LR-CPCM, MBIS, meta-GGA TD-DFT gradient, ML-optimized integration grids, 
  MM, NACMEs, nearIR, NEB, NEB-TS, NL-DFT gradient (VV10), 2- and 3-layer-ONIOM, interface openCOSMO-RS, QMMM,   
  Crystal-QMMM, SF, symmetry and pop. for TD-DFT, r2SCAN hybrids, SOLVATOR                                   
                                                                         
[Other institutions]                                                     
  V. Asgeirsson          : NEB                                           
  Christoph Bannwarth    : sTDA-DFT, sTD-DFT, PBEh-3c, B97-3c, D3        
  Sebastian Ehlert       : rSCAN, r2SCAN, r2SCAN-3c, D4, dhf basis sets  
  Marvin Friede          : D4 for Fr, Ra, Ac-Lr                          
  Lars Goerigk           : TD-DFT with DH, B97 family of functionals     
  Stefan Grimme          : VdW corrections, initial TS optimization, DFT functionals, gCP, sTDA/sTD-DF 
  Waldemar Hujo          : DFT-NL                                        
  H. Jonsson             : NEB                                           
  Holger Kruse           : gCP                                           
  Marcel Mueller         : wB97X-3c, vDZP basis set                      
  Hagen Neugebauer       : wr2SCAN                                       
  Tobias Risthaus        : range-separated hybrid DFT                    
  Lukas Wittmann         : regularized MP2, r2SCAN double-hybrids, wr2SCAN        
                                                                         
We gratefully acknowledge several colleagues who have allowed us to      
interface, adapt or use parts of their codes:                            
  Ed Valeev, F. Pavosevic, A. Kumar             : LibInt (2-el integral package), F12 methods 
  Garnet Chan, S. Sharma, J. Yang, R. Olivares  : DMRG                   
  Ulf Ekstrom                                   : XCFun DFT Library      
  Mihaly Kallay                                 : mrcc  (arbitrary order and MRCC methods)
  Frank Weinhold                                : gennbo (NPA and NBO analysis)           
  Simon Mueller                                 : openCOSMO-RS                            
  Christopher J. Cramer and Donald G. Truhlar   : smd solvation model                     
  S Lehtola, MJT Oliveira, MAL Marques          : LibXC Library                           
  Liviu Ungur et al                             : ANISO software                          


 Your calculation uses the libint2 library for the computation of 2-el integrals
 For citations please refer to: http://libint.valeyev.net

 Your ORCA version has been built with support for libXC version: 6.2.2
 For citations please refer to: https://libxc.gitlab.io

 This ORCA versions uses:
   CBLAS   interface :  Fast vector & matrix operations
   LAPACKE interface :  Fast linear algebra routines
   SCALAPACK package :  Parallel linear algebra routines
   Shared memory     :  Shared parallel matrices
   BLAS/LAPACK       :  OpenBLAS 0.3.27  USE64BITINT DYNAMIC_ARCH NO_AFFINITY Zen SINGLE_THREADED
        Core in use  :  Zen
   Copyright (c) 2011-2014, The OpenBLAS Project


NOTE: MaxCore=6000 MB was set to SCF,MP2,MDCI,CIPSI,MRCI and CIS
      => If you want to overwrite this, your respective input block should be placed after the MaxCore statement
Your calculation utilizes the atom-pairwise dispersion correction
with the Becke-Johnson damping scheme (D3BJ)


Your calculation employs the composite approach B97-3c by Grimme and coworkers.
For the correct reference, please check the publication list of the Grimme group:
http://www.thch.uni-bonn.de/tc/index.php?section=publikationen&subsection=grimme#2017
   

XCFun DFT library Copyright 2009-2010 Ulf Ekstrom and contributors.
See http://admol.org/xcfun for more information.
This is free software; see the source code for copying conditions.
There is ABSOLUTELY NO WARRANTY; not even for MERCHANTABILITY or FITNESS FOR A PARTICULAR PURPOSE.
For details see the documentation.
Scientific users of this library should cite U. Ekstrom, L. Visscher, R. Bast, A. J. Thorvaldsen and K. Ruud;
J.Chem.Theor.Comp. 2010, DOI: 10.1021/ct100117s
XCFun Version 0.99 

================================================================================

----- Orbital basis set information -----
Your calculation utilizes the basis: def2-mTZVP
----- AuxJ basis set information -----
Your calculation utilizes the basis: def2-mTZVP/J
================================================================================
                                        WARNINGS
                       Please study these warnings very carefully!
================================================================================


WARNING: Geometry Optimization
  ===> : Switching off AutoStart
         For restart on a previous wavefunction, please use MOREAD

================================================================================
                                       INPUT FILE
================================================================================
NAME = m1_00_Vitamin_B3-QM3_0-B97-3C-TZ.inp
|  1> %pal nprocs 16 end
|  2> %MaxCore 6000
|  3> # put your comments here
|  4> ! B97-3C  OPT  FREQ DEFGRID3 NOTRAH
|  5> %scf MaxIter 800 end
|  6> %output
|  7> Print [P_Hirshfeld] 1
|  8> end
|  9> %geom
| 10> MaxIter 3000
| 11>  TolE 1e-6 #TolE 5e-6 Energy change (a.u.)
| 12>  TolRMSG 3e-5 #TolRMSG 1e-4 RMS gradient (a.u.)
| 13>  TolMaxG 1e-4 #TolMaxG 3e-3 Max. element of gradient (a.u.)
| 14>  TolRMSD 2e-3 #TolRMSD 2e-3 RMS displacement (a.u.)
| 15>  TolMaxD 4e-3 #TolMaxD 4e-3 Max. displacement (a.u.)
| 16> end
| 17> * xyz 0 1
| 18>  O      -2.48812075      -1.24762025       0.14924598
| 19>  O      -2.61368939       0.96348704      -0.17577807
| 20>  N       1.59599351      -1.24880751       0.20404101
| 21>  C      -0.45672332      -0.04095751      -0.00025008
| 22>  C       0.24090765       1.14751445      -0.16468892
| 23>  C       0.26440417      -1.21570779       0.18133198
| 24>  C       1.62138173       1.12707628      -0.14319073
| 25>  C       2.25509916      -0.09722643       0.04441823
| 26>  C      -1.94924465      -0.02945526      -0.02179602
| 27>  H      -0.31310464       2.06781807      -0.30677656
| 28>  H      -0.25669933      -2.15875627       0.31227205
| 29>  H       2.20529912       2.03219662      -0.26767516
| 30>  H       3.34350649      -0.15628088       0.06775282
| 31>  H      -3.44900977      -1.14328055       0.12109348
| 32> *
| 33> 
| 34> 
| 35> 
| 36> 
| 37>                          ****END OF INPUT****
================================================================================

                       *****************************
                       * Geometry Optimization Run *
                       *****************************

Geometry optimization settings:
Update method            Update   .... BFGS
Choice of coordinates    CoordSys .... (2022) Redundant Internals
Initial Hessian          InHess   .... Almloef's Model
Max. no of cycles        MaxIter  .... 3000

Convergence Tolerances:
Energy Change            TolE     ....  1.0000e-06 Eh
Max. Gradient            TolMAXG  ....  1.0000e-04 Eh/bohr
RMS Gradient             TolRMSG  ....  3.0000e-05 Eh/bohr
Max. Displacement        TolMAXD  ....  4.0000e-03 bohr
RMS Displacement         TolRMSD  ....  2.0000e-03 bohr
Strict Convergence                .... False

------------------------------------------------------------------------------
                        ORCA OPTIMIZATION COORDINATE SETUP
------------------------------------------------------------------------------

The optimization will be done in redundant internal coordinates (2022)
Making redundant internal coordinates   ...  (2022 redundants) done
Evaluating the initial hessian          ...  (Almloef) done
Evaluating the coordinates              ...  done
Calculating the B-matrix                .... done
Calculating the G-matrix                .... done
Diagonalizing the G-matrix              .... done
The first mode is                       ....   24
The number of degrees of freedom        ....   36

    -----------------------------------------------------------------
                    Redundant Internal Coordinates


    -----------------------------------------------------------------
         Definition                    Initial Value    Approx d2E/dq
    -----------------------------------------------------------------
      1. B(C   4,C   3)                  1.3879         0.629695   
      2. B(C   5,N   2)                  1.3322         0.691992   
      3. B(C   5,C   3)                  1.3903         0.624025   
      4. B(C   6,C   4)                  1.3808         0.646291   
      5. B(C   7,C   6)                  1.3913         0.621823   
      6. B(C   7,N   2)                  1.3364         0.681313   
      7. B(C   8,O   0)                  1.3430         0.665133   
      8. B(C   8,C   3)                  1.4927         0.428404   
      9. B(C   8,O   1)                  1.2046         1.105663   
     10. B(H   9,C   4)                  1.0835         0.368737   
     11. B(H  10,C   5)                  1.0854         0.366273   
     12. B(H  11,C   6)                  1.0843         0.367725   
     13. B(H  12,C   7)                  1.0903         0.359759   
     14. B(H  13,O   0)                  0.9669         0.506854   
     15. A(C   8,O   0,H  13)          107.2869         0.372978   
     16. A(C   5,N   2,C   7)          118.0028         0.444462   
     17. A(C   4,C   3,C   5)          118.5745         0.435787   
     18. A(C   5,C   3,C   8)          121.8028         0.406836   
     19. A(C   4,C   3,C   8)          119.6227         0.407487   
     20. A(C   3,C   4,H   9)          119.0677         0.355262   
     21. A(C   3,C   4,C   6)          119.2109         0.438550   
     22. A(C   6,C   4,H   9)          121.7214         0.356834   
     23. A(C   3,C   5,H  10)          120.0581         0.354315   
     24. A(N   2,C   5,H  10)          117.1455         0.358361   
     25. A(N   2,C   5,C   3)          122.7964         0.440357   
     26. A(C   4,C   6,C   7)          118.0671         0.437556   
     27. A(C   7,C   6,H  11)          120.3148         0.354340   
     28. A(C   4,C   6,H  11)          121.6181         0.356668   
     29. A(N   2,C   7,C   6)          123.3482         0.438842   
     30. A(C   6,C   7,H  12)          120.3488         0.353028   
     31. A(N   2,C   7,H  12)          116.3030         0.356327   
     32. A(O   0,C   8,O   1)          122.8626         0.482093   
     33. A(O   1,C   8,C   3)          124.0350         0.447791   
     34. A(O   0,C   8,C   3)          113.1024         0.408805   
     35. D(H   9,C   4,C   3,C   5)   -179.9990         0.027491   
     36. D(C   6,C   4,C   3,C   8)    179.9935         0.027491   
     37. D(H   9,C   4,C   3,C   8)     -0.0113         0.027491   
     38. D(C   6,C   4,C   3,C   5)      0.0059         0.027491   
     39. D(N   2,C   5,C   3,C   8)   -179.9928         0.026967   
     40. D(N   2,C   5,C   3,C   4)     -0.0054         0.026967   
     41. D(C   3,C   5,N   2,C   7)      0.0024         0.035781   
     42. D(H  10,C   5,N   2,C   7)    179.9984         0.035781   
     43. D(H  10,C   5,C   3,C   4)    179.9988         0.026967   
     44. D(H  10,C   5,C   3,C   8)      0.0114         0.026967   
     45. D(H  11,C   6,C   4,H   9)      0.0077         0.029059   
     46. D(C   7,C   6,C   4,H   9)   -179.9987         0.029059   
     47. D(C   7,C   6,C   4,C   3)     -0.0037         0.029059   
     48. D(H  11,C   6,C   4,C   3)   -179.9973         0.029059   
     49. D(C   6,C   7,N   2,C   5)     -0.0000         0.034586   
     50. D(H  12,C   7,C   6,H  11)     -0.0001         0.026766   
     51. D(H  12,C   7,C   6,C   4)   -179.9938         0.026766   
     52. D(N   2,C   7,C   6,H  11)    179.9944         0.026766   
     53. D(N   2,C   7,C   6,C   4)      0.0007         0.026766   
     54. D(H  12,C   7,N   2,C   5)    179.9947         0.034586   
     55. D(O   1,C   8,C   3,C   5)    179.9870         0.012543   
     56. D(O   1,C   8,C   3,C   4)     -0.0002         0.012543   
     57. D(O   0,C   8,C   3,C   5)     -0.0059         0.012543   
     58. D(O   0,C   8,C   3,C   4)   -179.9931         0.012543   
     59. D(C   3,C   8,O   0,H  13)   -179.9939         0.032823   
     60. D(O   1,C   8,O   0,H  13)      0.0131         0.032823   
    -----------------------------------------------------------------

Number of atoms                         .... 14
Number of degrees of freedom            .... 60


         *************************************************************
         *                GEOMETRY OPTIMIZATION CYCLE   1            *
         *************************************************************
---------------------------------
CARTESIAN COORDINATES (ANGSTROEM)
---------------------------------
  O     -2.488121   -1.247620    0.149246
  O     -2.613689    0.963487   -0.175778
  N      1.595994   -1.248808    0.204041
  C     -0.456723   -0.040958   -0.000250
  C      0.240908    1.147514   -0.164689
  C      0.264404   -1.215708    0.181332
  C      1.621382    1.127076   -0.143191
  C      2.255099   -0.097226    0.044418
  C     -1.949245   -0.029455   -0.021796
  H     -0.313105    2.067818   -0.306777
  H     -0.256699   -2.158756    0.312272
  H      2.205299    2.032197   -0.267675
  H      3.343506   -0.156281    0.067753
  H     -3.449010   -1.143281    0.121093

----------------------------
CARTESIAN COORDINATES (A.U.)
----------------------------
  NO LB      ZA    FRAG     MASS         X           Y           Z
   0 O     8.0000    0    15.999   -4.701867   -2.357661    0.282034
   1 O     8.0000    0    15.999   -4.939157    1.820727   -0.332172
   2 N     7.0000    0    14.007    3.015991   -2.359904    0.385582
   3 C     6.0000    0    12.011   -0.863082   -0.077398   -0.000473
   4 C     6.0000    0    12.011    0.455249    2.168488   -0.311217
   5 C     6.0000    0    12.011    0.499651   -2.297355    0.342668
   6 C     6.0000    0    12.011    3.063967    2.129866   -0.270591
   7 C     6.0000    0    12.011    4.261520   -0.183731    0.083938
   8 C     6.0000    0    12.011   -3.683539   -0.055662   -0.041189
   9 H     1.0000    0     1.008   -0.591682    3.907610   -0.579724
  10 H     1.0000    0     1.008   -0.485091   -4.079458    0.590109
  11 H     1.0000    0     1.008    4.167411    3.840295   -0.505833
  12 H     1.0000    0     1.008    6.318312   -0.295328    0.128034
  13 H     1.0000    0     1.008   -6.517684   -2.160487    0.228834

--------------------------------
INTERNAL COORDINATES (ANGSTROEM)
--------------------------------
 O      0   0   0     0.000000000000     0.00000000     0.00000000
 O      1   0   0     2.238393076365     0.00000000     0.00000000
 N      1   2   0     4.084481998202    93.34383051     0.00000000
 C      1   2   3     2.367479579357    62.32185448     0.00000000
 C      4   1   2     1.387874166526   151.07345311     0.00000000
 C      3   1   2     1.332194228298     1.42240451   359.89746565
 C      5   4   1     1.380792734815   119.21089921   179.98612111
 C      3   1   2     1.336427578872   119.42524047     0.00000000
 C      2   1   3     1.204629277149    30.26231541     0.00000000
 H      5   4   1     1.083548461259   119.06766985     0.00000000
 H      6   3   8     1.085373021258   117.14553288   179.99836567
 H      7   5   4     1.084296417747   121.61805928   180.00270097
 H      8   3   1     1.090257972754   116.30295899   179.99185518
 H      1   2   3     0.966947281401    80.41185545   180.00256756

---------------------------
INTERNAL COORDINATES (A.U.)
---------------------------
 O      0   0   0     0.000000000000     0.00000000     0.00000000
 O      1   0   0     4.229949894396     0.00000000     0.00000000
 N      1   2   0     7.718552375533    93.34383051     0.00000000
 C      1   2   3     4.473888032635    62.32185448     0.00000000
 C      4   1   2     2.622702083078   151.07345311     0.00000000
 C      3   1   2     2.517482248673     1.42240451   359.89746565
 C      5   4   1     2.609320116509   119.21089921   179.98612111
 C      3   1   2     2.525482121888   119.42524047     0.00000000
 C      2   1   3     2.276419426716    30.26231541     0.00000000
 H      5   4   1     2.047609844611   119.06766985     0.00000000
 H      6   3   8     2.051057763324   117.14553288   179.99836567
 H      7   5   4     2.049023277533   121.61805928   180.00270097
 H      8   3   1     2.060288983829   116.30295899   179.99185518
 H      1   2   3     1.827265547788    80.41185545   180.00256756

---------------------
BASIS SET INFORMATION
---------------------
There are 4 groups of distinct atoms

 Group   1 Type O   : 11s6p2d contracted to 5s3p2d pattern {62111/411/11}
 Group   2 Type N   : 11s6p1d contracted to 5s3p1d pattern {62111/411/1}
 Group   3 Type C   : 11s6p1d contracted to 5s3p1d pattern {62111/411/1}
 Group   4 Type H   : 5s contracted to 3s pattern {311}

Atom   0O    basis set group =>   1
Atom   1O    basis set group =>   1
Atom   2N    basis set group =>   2
Atom   3C    basis set group =>   3
Atom   4C    basis set group =>   3
Atom   5C    basis set group =>   3
Atom   6C    basis set group =>   3
Atom   7C    basis set group =>   3
Atom   8C    basis set group =>   3
Atom   9H    basis set group =>   4
Atom  10H    basis set group =>   4
Atom  11H    basis set group =>   4
Atom  12H    basis set group =>   4
Atom  13H    basis set group =>   4
---------------------------------
AUXILIARY/J BASIS SET INFORMATION
---------------------------------
There are 4 groups of distinct atoms

 Group   1 Type O   : 8s3p3d contracted to 6s3p3d pattern {311111/111/111}
 Group   2 Type N   : 8s3p3d contracted to 6s3p3d pattern {311111/111/111}
 Group   3 Type C   : 8s3p3d contracted to 6s3p3d pattern {311111/111/111}
 Group   4 Type H   : 5s2p contracted to 3s1p pattern {311/2}

Atom   0O    basis set group =>   1
Atom   1O    basis set group =>   1
Atom   2N    basis set group =>   2
Atom   3C    basis set group =>   3
Atom   4C    basis set group =>   3
Atom   5C    basis set group =>   3
Atom   6C    basis set group =>   3
Atom   7C    basis set group =>   3
Atom   8C    basis set group =>   3
Atom   9H    basis set group =>   4
Atom  10H    basis set group =>   4
Atom  11H    basis set group =>   4
Atom  12H    basis set group =>   4
Atom  13H    basis set group =>   4


           ************************************************************
           *        Program running with 16 parallel MPI-processes    *
           *              working on a common directory               *
           ************************************************************
------------------------------------------------------------------------------
                             ORCA STARTUP CALCULATIONS
                           -- RI-GTO INTEGRALS CHOSEN --
------------------------------------------------------------------------------
------------------------------------------------------------------------------
                   ___                                                        
                  /   \      - P O W E R E D   B Y -                         
                 /     \                                                     
                 |  |  |   _    _      __       _____    __    __             
                 |  |  |  | |  | |    /  \     |  _  \  |  |  /  |          
                  \  \/   | |  | |   /    \    | | | |  |  | /  /          
                 / \  \   | |__| |  /  /\  \   | |_| |  |  |/  /          
                |  |  |   |  __  | /  /__\  \  |    /   |      \           
                |  |  |   | |  | | |   __   |  |    \   |  |\   \          
                \     /   | |  | | |  |  |  |  | |\  \  |  | \   \       
                 \___/    |_|  |_| |__|  |__|  |_| \__\ |__|  \__/        
                                                                              
                      - O R C A' S   B I G   F R I E N D -                    
                                      &                                       
                       - I N T E G R A L  F E E D E R -                       
                                                                              
 v1 FN, 2020, v2 2021, v3 2022-2024                                           
------------------------------------------------------------------------------


----------------------
SHARK INTEGRAL PACKAGE
----------------------

Number of atoms                             ...     14
Number of basis functions                   ...    196
Number of shells                            ...     98
Maximum angular momentum                    ...      2
Integral batch strategy                     ... SHARK/LIBINT Hybrid
RI-J (if used) integral strategy            ... SPLIT-RIJ (Revised 2003 algorithm where possible)
Printlevel                                  ...      1
Contraction scheme used                     ... SEGMENTED contraction
Prescreening option                         ... SCHWARTZ
   Thresh                                   ... 2.500e-11
   Tcut                                     ... 2.500e-12
   Tpresel                                  ... 2.500e-12 
Coulomb Range Separation                    ... NOT USED
Exchange Range Separation                   ... NOT USED
Multipole approximations                    ... NOT USED
Finite Nucleus Model                        ... NOT USED
CABS basis                                  ... NOT available
Auxiliary Coulomb fitting basis             ... AVAILABLE
   # of basis functions in Aux-J            ...    300
   # of shells in Aux-J                     ...    128
   Maximum angular momentum in Aux-J        ...      2
Auxiliary J/K fitting basis                 ... NOT available
Auxiliary Correlation fitting basis         ... NOT available
Auxiliary 'external' fitting basis          ... NOT available

Checking pre-screening integrals            ... done (  0.0 sec) Dimension = 98
Check shell pair data                       ... done (  0.0 sec)
Shell pair information
Shell pair cut-off parameter TPreSel        ...   2.5e-12
Total number of shell pairs                 ...      4851
Shell pairs after pre-screening             ...      4399
Total number of primitive shell pairs       ...     18168
Primitive shell pairs kept                  ...     11703
          la=0 lb=0:   1555 shell pairs
          la=1 lb=0:   1526 shell pairs
          la=1 lb=1:    372 shell pairs
          la=2 lb=0:    596 shell pairs
          la=2 lb=1:    288 shell pairs
          la=2 lb=2:     62 shell pairs

Calculating one electron integrals          ... done (  0.0 sec)
Calculating RI/J V-Matrix + Cholesky decomp.... done (  0.0 sec)
Calculating Nuclear repulsion               ... done (  0.0 sec) ENN=    409.482447362947 Eh

Diagonalization of the overlap matrix:
Smallest eigenvalue                        ... 4.814e-05
Time for diagonalization                   ...    0.003 sec
Threshold for overlap eigenvalues          ... 1.000e-07
Number of eigenvalues below threshold      ... 0
Time for construction of square roots      ...    0.001 sec
Total time needed                          ...    0.004 sec

-------------------
DFT GRID GENERATION
-------------------

General Integration Accuracy     IntAcc      ... 4.959
Radial Grid Type                 RadialGrid  ... OptM3 with GC (2021)
Angular Grid (max. ang.)         AngularGrid ... 6 (Lebedev-590)
Angular grid pruning method      GridPruning ... 4 (adaptive)
Weight generation scheme         WeightScheme... mBecke (2022)
Basis function cutoff            BFCut       ... 1.0000e-11
Integration weight cutoff        WCut        ... 1.0000e-14
Partially contracted basis set               ... off
Rotationally invariant grid construction     ... off
Angular grids for H and He will be reduced by one unit
Diffuse basis detected: some atoms will have their outermost
                        angular grid increased by 1.

Total number of grid points                  ...   173871
Total number of batches                      ...     2724
Average number of points per batch           ...       63
Average number of grid points per atom       ...    12419
Initializing property integral containers    ... done (  0.0 sec)

SHARK setup successfully completed in   1.3 seconds

Maximum memory used throughout the entire STARTUP-calculation: 36.5 MB


           ************************************************************
           *        Program running with 16 parallel MPI-processes    *
           *              working on a common directory               *
           ************************************************************
-------------------------------------------------------------------------------
                                 ORCA GUESS
                   Start orbitals & Density for SCF / CASSCF
-------------------------------------------------------------------------------

------------
SCF SETTINGS
------------
Hamiltonian:
 Density Functional     Method          .... DFT(GTOs)
 Exchange Functional    Exchange        .... B973C
 Correlation Functional Correlation     .... B973C
 Gradients option       PostSCFGGA      .... off
 RI-approximation to the Coulomb term is turned on
   Number of AuxJ basis functions       .... 300


General Settings:
 Integral files         IntName         .... m1_00_Vitamin_B3-QM3_0-B97-3C-TZ
 Hartree-Fock type      HFTyp           .... RHF
 Total Charge           Charge          ....    0
 Multiplicity           Mult            ....    1
 Number of Electrons    NEL             ....   64
 Basis Dimension        Dim             ....  196
 Nuclear Repulsion      ENuc            ....    409.4824473629 Eh

Convergence Acceleration:
 AO-DIIS                CNVDIIS         .... on
   Start iteration      DIISMaxIt       ....    12
   Startup error        DIISStart       ....  0.200000
   # of expansion vecs  DIISMaxEq       ....     5
   Bias factor          DIISBfac        ....   1.050
   Max. coefficient     DIISMaxC        ....  10.000
 MO-DIIS                CNVKDIIS        .... off
 Trust-Rad. Augm. Hess. CNVTRAH         .... off
 SOSCF                  CNVSOSCF        .... on
   Start iteration      SOSCFMaxIt      ....   150
   Startup grad/error   SOSCFStart      ....  0.003300
   Hessian update       SOSCFHessUp     .... L-BFGS
 Level Shifting         CNVShift        .... on
   Level shift para.    LevelShift      ....    0.2500
   Turn off err/grad.   ShiftErr        ....    0.0010
 Zerner damping         CNVZerner       .... off
 Static damping         CNVDamp         .... on
   Fraction old density DampFac         ....    0.7000
   Max. Damping (<1)    DampMax         ....    0.9800
   Min. Damping (>=0)   DampMin         ....    0.0000
   Turn off err/grad.   DampErr         ....    0.1000

SCF Procedure:
 Maximum # iterations   MaxIter         ....   800
 SCF integral mode      SCFMode         .... Direct
   Integral package                     .... SHARK and LIBINT hybrid scheme
 Reset frequency        DirectResetFreq ....    20
 Integral Threshold     Thresh          ....  2.500e-11 Eh
 Primitive CutOff       TCut            ....  2.500e-12 Eh

Convergence Tolerance:
 Convergence Check Mode ConvCheckMode   .... Total+1el-Energy
 Convergence forced     ConvForced      .... 0
 Energy Change          TolE            ....  1.000e-08 Eh
 1-El. energy change                    ....  1.000e-05 Eh
 Orbital Gradient       TolG            ....  1.000e-05
 Orbital Rotation angle TolX            ....  1.000e-05
 DIIS Error             TolErr          ....  5.000e-07

--------------------------------
INITIAL GUESS: MINIMAL BASIS EHT
--------------------------------
The minimal basis has 50 functions
EHT matrix was diagonalized
Basis set overlap was calculated now projecting the orbitals
Using GuessMode=FMatrix for the initial guess
C*T matrix was formed
Effective Fockian was calculated
Effective Fockian was diagonalized
Initial density was built
                      ------------------
                      INITIAL GUESS DONE
                      ------------------
             **** ENERGY FILE WAS UPDATED (m1_00_Vitamin_B3-QM3_0-B97-3C-TZ.en.tmp) ****
Finished Guess after   0.1 sec
Maximum memory used throughout the entire GUESS-calculation: 9.6 MB


           ************************************************************
           *        Program running with 16 parallel MPI-processes    *
           *              working on a common directory               *
           ************************************************************

-------------------------------------------------------------------------------------------
                                      ORCA LEAN-SCF
                              memory conserving SCF solver
-------------------------------------------------------------------------------------------

----------------------------------------D-I-I-S--------------------------------------------
Iteration    Energy (Eh)           Delta-E    RMSDP     MaxDP     DIISErr   Damp  Time(sec)
-------------------------------------------------------------------------------------------
               ***  Starting incremental Fock matrix formation  ***
    1    -434.9578774405645731     0.00e+00  7.58e-03  1.53e-01  4.70e-01  0.700   0.2
Warning: op=0 Small HOMO/LUMO gap (   0.057) - skipping pre-diagonalization
         Will do a full diagonalization
    2    -435.5692437299179005    -6.11e-01  5.87e-03  1.53e-01  3.32e-01  0.700   0.2
    3    -435.8719423138305160    -3.03e-01  2.98e-03  6.29e-02  2.34e-01  0.700   0.1
                               ***Turning on AO-DIIS***
    4    -436.0818189055898415    -2.10e-01  2.27e-03  6.91e-02  1.64e-01  0.700   0.1
    5    -436.2304117815651239    -1.49e-01  1.64e-03  5.45e-02  1.13e-01  0.700   0.1
    6    -436.3350778127843910    -1.05e-01  1.08e-03  3.16e-02  7.90e-02  0.700   0.1
    7    -436.4092419911279990    -7.42e-02  2.47e-03  5.57e-02  5.55e-02  0.000   0.1
    8    -436.5806655078651488    -1.71e-01  5.35e-04  1.41e-02  2.60e-02  0.000   0.2
    9    -436.5822547089204022    -1.59e-03  1.83e-04  3.92e-03  8.68e-03  0.000   0.1
   10    -436.5822955578609594    -4.08e-05  7.03e-05  1.80e-03  7.03e-03  0.000   0.1
                              *** Initializing SOSCF ***
---------------------------------------S-O-S-C-F--------------------------------------
Iteration    Energy (Eh)           Delta-E    RMSDP     MaxDP     MaxGrad    Time(sec)
--------------------------------------------------------------------------------------
   11    -436.5823965016705301    -1.01e-04  2.82e-05  6.03e-04  1.21e-03     0.1
               *** Restarting incremental Fock matrix formation ***
   12    -436.5824028788068176    -6.38e-06  3.48e-05  1.08e-03  1.52e-04     0.2
   13    -436.5824004125529996     2.47e-06  2.19e-05  5.02e-04  3.73e-04     0.1
   14    -436.5824033484648794    -2.94e-06  1.05e-05  3.49e-04  4.47e-05     0.1
   15    -436.5824031495261011     1.99e-07  7.01e-06  2.56e-04  1.13e-04     0.1
   16    -436.5824033915448013    -2.42e-07  3.03e-06  9.44e-05  1.21e-05     0.1
   17    -436.5824033785567622     1.30e-08  1.87e-06  5.03e-05  3.19e-05     0.1
   18    -436.5824033932402131    -1.47e-08  1.13e-06  4.05e-05  1.28e-06     0.1
                  *** Gradient check signals convergence ***

               *****************************************************
               *                     SUCCESS                       *
               *           SCF CONVERGED AFTER  18 CYCLES          *
               *****************************************************

             **** ENERGY FILE WAS UPDATED (m1_00_Vitamin_B3-QM3_0-B97-3C-TZ.en.tmp) ****

----------------
TOTAL SCF ENERGY
----------------

Total Energy       :       -436.58240339324021 Eh          -11880.01116 eV

Components:
Nuclear Repulsion  :        409.48244736294708 Eh           11142.58387 eV
Electronic Energy  :       -846.06485075618730 Eh          -23022.59504 eV
One Electron Energy:      -1405.15670659794864 Eh          -38236.25788 eV
Two Electron Energy:        559.09185584176134 Eh           15213.66285 eV

Virial components:
Potential Energy   :       -871.60839271138798 Eh          -23717.67015 eV
Kinetic Energy     :        435.02598931814771 Eh           11837.65898 eV
Virial Ratio       :          2.00357774963637

DFT components:
N(Alpha)           :       32.000001879412 electrons
N(Beta)            :       32.000001879412 electrons
N(Total)           :       64.000003758824 electrons
E(XC)              :      -58.167507730098 Eh       

---------------
SCF CONVERGENCE
---------------

  Last Energy change         ...    1.4683e-08  Tolerance :   1.0000e-08
  Last MAX-Density change    ...    4.0495e-05  Tolerance :   1.0000e-07
  Last RMS-Density change    ...    1.1285e-06  Tolerance :   5.0000e-09
  Last DIIS Error            ...    1.2051e-03  Tolerance :   5.0000e-07
  Last Orbital Gradient      ...    1.2823e-06  Tolerance :   1.0000e-05
  Last Orbital Rotation      ...    6.8972e-06  Tolerance :   1.0000e-05


----------------
ORBITAL ENERGIES
----------------

  NO   OCC          E(Eh)            E(eV) 
   0   2.0000     -18.806289      -511.7451 
   1   2.0000     -18.742268      -510.0030 
   2   2.0000     -13.997417      -380.8891 
   3   2.0000     -10.031657      -272.9753 
   4   2.0000      -9.944309      -270.5984 
   5   2.0000      -9.942977      -270.5622 
   6   2.0000      -9.928001      -270.1547 
   7   2.0000      -9.927540      -270.1421 
   8   2.0000      -9.918939      -269.9080 
   9   2.0000      -1.041757       -28.3476 
  10   2.0000      -0.952497       -25.9188 
  11   2.0000      -0.885091       -24.0845 
  12   2.0000      -0.761209       -20.7136 
  13   2.0000      -0.723990       -19.7008 
  14   2.0000      -0.630958       -17.1692 
  15   2.0000      -0.592862       -16.1326 
  16   2.0000      -0.562332       -15.3018 
  17   2.0000      -0.500388       -13.6163 
  18   2.0000      -0.469100       -12.7649 
  19   2.0000      -0.447453       -12.1758 
  20   2.0000      -0.435437       -11.8488 
  21   2.0000      -0.420705       -11.4480 
  22   2.0000      -0.412937       -11.2366 
  23   2.0000      -0.374340       -10.1863 
  24   2.0000      -0.371281       -10.1031 
  25   2.0000      -0.363123        -9.8811 
  26   2.0000      -0.347281        -9.4500 
  27   2.0000      -0.297526        -8.0961 
  28   2.0000      -0.275254        -7.4900 
  29   2.0000      -0.257062        -6.9950 
  30   2.0000      -0.252550        -6.8722 
  31   2.0000      -0.224862        -6.1188 
  32   0.0000      -0.093821        -2.5530 
  33   0.0000      -0.067715        -1.8426 
  34   0.0000      -0.000362        -0.0098 
  35   0.0000       0.011278         0.3069 
  36   0.0000       0.041589         1.1317 
  37   0.0000       0.074043         2.0148 
  38   0.0000       0.080503         2.1906 
  39   0.0000       0.095712         2.6044 
  40   0.0000       0.099899         2.7184 
  41   0.0000       0.105395         2.8679 
  42   0.0000       0.123905         3.3716 
*Only the first 10 virtual orbitals were printed.

                    ********************************
                    * MULLIKEN POPULATION ANALYSIS *
                    ********************************

-----------------------
MULLIKEN ATOMIC CHARGES
-----------------------
   0 O :   -0.516807
   1 O :   -0.385041
   2 N :   -0.054830
   3 C :    0.171661
   4 C :   -0.216643
   5 C :   -0.150776
   6 C :   -0.056444
   7 C :   -0.164894
   8 C :    0.210568
   9 H :    0.205411
  10 H :    0.181842
  11 H :    0.181108
  12 H :    0.152721
  13 H :    0.442125
Sum of atomic charges:    0.0000000

--------------------------------
MULLIKEN REDUCED ORBITAL CHARGES
--------------------------------
  0 O s       :     3.776545  s :     3.776545
      pz      :     1.784746  p :     4.694570
      px      :     1.388936
      py      :     1.520887
      dz2     :     0.005587  d :     0.045692
      dxz     :     0.005279
      dyz     :     0.004806
      dx2y2   :     0.022994
      dxy     :     0.007026

  1 O s       :     3.838811  s :     3.838811
      pz      :     1.425958  p :     4.513582
      px      :     1.630461
      py      :     1.457163
      dz2     :     0.006050  d :     0.032648
      dxz     :     0.005551
      dyz     :     0.003476
      dx2y2   :     0.007096
      dxy     :     0.010474

  2 N s       :     3.468478  s :     3.468478
      pz      :     1.121994  p :     3.540889
      px      :     1.077404
      py      :     1.341491
      dz2     :     0.005051  d :     0.045463
      dxz     :     0.006674
      dyz     :     0.006432
      dx2y2   :     0.016166
      dxy     :     0.011141

  3 C s       :     3.091542  s :     3.091542
      pz      :     1.025704  p :     2.691447
      px      :     0.883594
      py      :     0.782149
      dz2     :     0.003884  d :     0.045351
      dxz     :     0.003944
      dyz     :     0.006005
      dx2y2   :     0.017448
      dxy     :     0.014070

  4 C s       :     3.234287  s :     3.234287
      pz      :     0.908653  p :     2.940420
      px      :     1.008926
      py      :     1.022842
      dz2     :     0.003777  d :     0.041936
      dxz     :     0.005977
      dyz     :     0.003595
      dx2y2   :     0.012545
      dxy     :     0.016042

  5 C s       :     3.244560  s :     3.244560
      pz      :     0.903381  p :     2.848650
      px      :     0.959753
      py      :     0.985516
      dz2     :     0.004126  d :     0.057565
      dxz     :     0.008564
      dyz     :     0.003509
      dx2y2   :     0.016603
      dxy     :     0.024763

  6 C s       :     3.050144  s :     3.050144
      pz      :     0.998195  p :     2.965994
      px      :     0.981293
      py      :     0.986505
      dz2     :     0.003893  d :     0.040307
      dxz     :     0.004765
      dyz     :     0.003203
      dx2y2   :     0.012856
      dxy     :     0.015589

  7 C s       :     3.248583  s :     3.248583
      pz      :     0.913431  p :     2.859088
      px      :     1.029892
      py      :     0.915765
      dz2     :     0.004401  d :     0.057223
      dxz     :     0.002892
      dyz     :     0.008763
      dx2y2   :     0.024647
      dxy     :     0.016520

  8 C s       :     3.131663  s :     3.131663
      pz      :     0.802137  p :     2.536529
      px      :     0.932253
      py      :     0.802139
      dz2     :     0.006187  d :     0.121240
      dxz     :     0.010590
      dyz     :     0.024527
      dx2y2   :     0.047868
      dxy     :     0.032068

  9 H s       :     0.794589  s :     0.794589

 10 H s       :     0.818158  s :     0.818158

 11 H s       :     0.818892  s :     0.818892

 12 H s       :     0.847279  s :     0.847279

 13 H s       :     0.557875  s :     0.557875



                     *******************************
                     * LOEWDIN POPULATION ANALYSIS *
                     *******************************

----------------------
LOEWDIN ATOMIC CHARGES
----------------------
   0 O :   -0.517330
   1 O :   -0.413700
   2 N :   -0.175038
   3 C :   -0.027588
   4 C :   -0.081103
   5 C :   -0.024041
   6 C :   -0.171635
   7 C :   -0.050845
   8 C :    0.366771
   9 H :    0.195045
  10 H :    0.184447
  11 H :    0.174023
  12 H :    0.160739
  13 H :    0.380254

-------------------------------
LOEWDIN REDUCED ORBITAL CHARGES
-------------------------------
  0 O s       :     3.516676  s :     3.516676
      pz      :     1.752647  p :     4.719167
      px      :     1.394738
      py      :     1.571782
      dz2     :     0.041981  d :     0.281488
      dxz     :     0.020126
      dyz     :     0.049243
      dx2y2   :     0.094236
      dxy     :     0.075903

  1 O s       :     3.532364  s :     3.532364
      pz      :     1.415297  p :     4.629378
      px      :     1.660012
      py      :     1.554069
      dz2     :     0.033663  d :     0.251958
      dxz     :     0.023414
      dyz     :     0.043161
      dx2y2   :     0.073750
      dxy     :     0.077970

  2 N s       :     3.234091  s :     3.234091
      pz      :     1.118543  p :     3.856329
      px      :     1.275000
      py      :     1.462786
      dz2     :     0.009403  d :     0.084617
      dxz     :     0.012083
      dyz     :     0.008562
      dx2y2   :     0.031277
      dxy     :     0.023292

  3 C s       :     2.843824  s :     2.843824
      pz      :     0.989095  p :     3.089378
      px      :     1.003187
      py      :     1.097096
      dz2     :     0.007828  d :     0.094387
      dxz     :     0.006562
      dyz     :     0.011180
      dx2y2   :     0.036457
      dxy     :     0.032360

  4 C s       :     2.899805  s :     2.899805
      pz      :     0.909835  p :     3.099422
      px      :     1.095482
      py      :     1.094105
      dz2     :     0.006133  d :     0.081876
      dxz     :     0.010759
      dyz     :     0.006068
      dx2y2   :     0.027414
      dxy     :     0.031502

  5 C s       :     2.885788  s :     2.885788
      pz      :     0.904232  p :     3.021279
      px      :     1.028923
      py      :     1.088124
      dz2     :     0.008138  d :     0.116975
      dxz     :     0.015057
      dyz     :     0.005896
      dx2y2   :     0.036716
      dxy     :     0.051169

  6 C s       :     2.910169  s :     2.910169
      pz      :     0.987352  p :     3.181129
      px      :     1.101729
      py      :     1.092048
      dz2     :     0.006490  d :     0.080337
      dxz     :     0.008658
      dyz     :     0.005376
      dx2y2   :     0.028271
      dxy     :     0.031543

  7 C s       :     2.897967  s :     2.897967
      pz      :     0.910687  p :     3.037032
      px      :     1.076889
      py      :     1.049456
      dz2     :     0.008270  d :     0.115847
      dxz     :     0.004171
      dyz     :     0.016413
      dx2y2   :     0.051508
      dxy     :     0.035485

  8 C s       :     2.739360  s :     2.739360
      pz      :     0.739891  p :     2.625149
      px      :     0.962698
      py      :     0.922560
      dz2     :     0.018486  d :     0.268719
      dxz     :     0.017568
      dyz     :     0.047863
      dx2y2   :     0.108327
      dxy     :     0.076475

  9 H s       :     0.804955  s :     0.804955

 10 H s       :     0.815553  s :     0.815553

 11 H s       :     0.825977  s :     0.825977

 12 H s       :     0.839261  s :     0.839261

 13 H s       :     0.619746  s :     0.619746



                      *****************************
                      * MAYER POPULATION ANALYSIS *
                      *****************************

  NA   - Mulliken gross atomic population
  ZA   - Total nuclear charge
  QA   - Mulliken gross atomic charge
  VA   - Mayer's total valence
  BVA  - Mayer's bonded valence
  FA   - Mayer's free valence

  ATOM       NA         ZA         QA         VA         BVA        FA
  0 O      8.5168     8.0000    -0.5168     1.9632     1.9632     0.0000
  1 O      8.3850     8.0000    -0.3850     2.1299     2.1299    -0.0000
  2 N      7.0548     7.0000    -0.0548     3.1168     3.1168     0.0000
  3 C      5.8283     6.0000     0.1717     3.5419     3.5419     0.0000
  4 C      6.2166     6.0000    -0.2166     3.9196     3.9196    -0.0000
  5 C      6.1508     6.0000    -0.1508     3.8714     3.8714     0.0000
  6 C      6.0564     6.0000    -0.0564     3.7065     3.7065    -0.0000
  7 C      6.1649     6.0000    -0.1649     4.0059     4.0059     0.0000
  8 C      5.7894     6.0000     0.2106     4.2214     4.2214    -0.0000
  9 H      0.7946     1.0000     0.2054     0.9396     0.9396     0.0000
 10 H      0.8182     1.0000     0.1818     0.9689     0.9689     0.0000
 11 H      0.8189     1.0000     0.1811     0.9307     0.9307     0.0000
 12 H      0.8473     1.0000     0.1527     0.9546     0.9546     0.0000
 13 H      0.5579     1.0000     0.4421     0.7912     0.7912    -0.0000

  Mayer bond orders larger than 0.100000
B(  0-O ,  3-C ) :  -0.1156 B(  0-O ,  8-C ) :   1.1741 B(  0-O , 13-H ) :   0.7279 
B(  1-O ,  8-C ) :   1.9707 B(  2-N ,  5-C ) :   1.5478 B(  2-N ,  7-C ) :   1.5297 
B(  3-C ,  4-C ) :   1.4105 B(  3-C ,  5-C ) :   1.2989 B(  3-C ,  8-C ) :   0.9846 
B(  4-C ,  6-C ) :   1.4332 B(  4-C ,  9-H ) :   0.9266 B(  5-C , 10-H ) :   0.9418 
B(  6-C ,  7-C ) :   1.3623 B(  6-C , 11-H ) :   0.9064 B(  7-C , 12-H ) :   0.9575 



------------------
HIRSHFELD ANALYSIS
------------------

Total integrated alpha density =     32.000001879
Total integrated beta density  =     32.000001879

  ATOM     CHARGE      SPIN    
   0 O   -0.165540    0.000000
   1 O   -0.282026    0.000000
   2 N   -0.183996    0.000000
   3 C   -0.014271    0.000000
   4 C   -0.004178    0.000000
   5 C    0.043089    0.000000
   6 C   -0.032430    0.000000
   7 C    0.044873    0.000000
   8 C    0.206966    0.000000
   9 H    0.053987    0.000000
  10 H    0.047424    0.000000
  11 H    0.051110    0.000000
  12 H    0.048940    0.000000
  13 H    0.186050    0.000000

  TOTAL  -0.000004    0.000000

-------
TIMINGS
-------

Total SCF time: 0 days 0 hours 0 min 2 sec 

Total time                  ....       2.868 sec
Sum of individual times     ....       2.826 sec  ( 98.5%)

SCF preparation             ....       0.093 sec  (  3.3%)
Fock matrix formation       ....       2.322 sec  ( 81.0%)
  Startup                   ....       0.009 sec  (  0.4% of F)
  Split-RI-J                ....       0.303 sec  ( 13.0% of F)
  XC integration            ....       1.870 sec  ( 80.6% of F)
    XC Preparation          ....       0.000 sec  (  0.0% of XC)
    Basis function eval.    ....       0.489 sec  ( 26.1% of XC)
    Density eval.           ....       0.334 sec  ( 17.9% of XC)
    XC-Functional eval.     ....       0.079 sec  (  4.2% of XC)
    XC-Potential eval.      ....       0.350 sec  ( 18.7% of XC)
Diagonalization             ....       0.000 sec  (  0.0%)
Density matrix formation    ....       0.023 sec  (  0.8%)
Total Energy calculation    ....       0.016 sec  (  0.6%)
Population analysis         ....       0.164 sec  (  5.7%)
Orbital Transformation      ....       0.018 sec  (  0.6%)
Orbital Orthonormalization  ....       0.000 sec  (  0.0%)
DIIS solution               ....       0.138 sec  (  4.8%)
SOSCF solution              ....       0.050 sec  (  1.8%)
Finished LeanSCF after   2.9 sec

Maximum memory used throughout the entire LEANSCF-calculation: 25.1 MB


           ************************************************************
           *        Program running with 16 parallel MPI-processes    *
           *              working on a common directory               *
           ************************************************************

------------------------------------------------------------------------------
                         ORCA PROPERTY INTEGRAL CALCULATIONS
------------------------------------------------------------------------------

GBWName                                   ... m1_00_Vitamin_B3-QM3_0-B97-3C-TZ.gbw
Number of atoms                           ...     14
Number of basis functions                 ...    196
Max core memory                           ...   6000 MB

Dipole integrals                          ... YES
Quadrupole integrals                      ...  NO
Linear momentum integrals                 ...  NO
Angular momentum integrals                ...  NO
Higher moments length integrals           ...  NO
Higher moments velocity integrals         ...  NO
Kinetic energy integrals                  ...  NO
GIAO right hand sides                     ...  NO
GIAO dipole derivative integrals          ...  NO
SOC integrals                             ...  NO
EPR diamagnetic integrals (GIAO)          ...  NO
EPR gauge integrals                       ...  NO
Field gradient integrals                  ...  NO (   0 nuclei)
Spin-dipole/Fermi contact integrals       ...  NO (   0 nuclei)
Contact density integrals                 ...  NO (   0 nuclei)
Nucleus-orbit integrals                   ...  NO (   0 nuclei)
Geometric perturbations                   ...  NO (  14 nuclei)

Choice of electric origin   ... Center of mass
Position of electric origin ... ( -0.5218, -0.1640,  0.0170) 
Choice of magnetic origin   ... GIAO
Position of magnetic origin ... (  0.0000,  0.0000,  0.0000) 

Calculating integrals                     ... Electric Dipole (Length)     done (  0.0 sec)

Property integrals calculated in   0.0 sec

Maximum memory used throughout the entire PROPINT-calculation: 10.1 MB


-------------------------------------------------------------------------------
                          DFT DISPERSION CORRECTION                            
                                                                               
                              DFTD3 V3.1  Rev 1                                
                          USING Becke-Johnson damping                          
-------------------------------------------------------------------------------
The B97-3c composite method is recognized
Using three-body term ABC
Active option DFTDOPT                   ...         4   

molecular C6(AA) [au] = 2490.038985 


            DFT-D V3
 parameters
 s6 scaling factor         :     1.0000 
 a1 scaling factor         :     0.3700 
 s8 scaling factor         :     1.5000 
 a2 scaling factor         :     4.1000 
 Damping factor alpha9(ATM):    16.0000 
 ad hoc parameters k1-k3   :    16.0000     1.3333    -4.0000 

 Edisp/kcal,au: -20.751494551282  -0.033069608023 
 E6   /kcal   : -10.243857318 
 E8   /kcal   : -10.510586959 
 E6(ABC)      :   0.002949726 
 % E8         :  50.649782999 
 % E6(ABC)    :  -0.014214522 

-------------------------   ----------------
Dispersion correction           -0.033069608
-------------------------   ----------------

------------------   -----------------
SRB correction            -0.048284331
------------------   -----------------

-------------------------   --------------------
FINAL SINGLE POINT ENERGY      -436.663757332463
-------------------------   --------------------



           ************************************************************
           *        Program running with 16 parallel MPI-processes    *
           *              working on a common directory               *
           ************************************************************
------------------------------------------------------------------------------
                         ORCA SCF GRADIENT CALCULATION
------------------------------------------------------------------------------

Nuc. rep. gradient        (SHARK) ... done (  0.0 sec)
HCore & Overlap gradient  (SHARK) ... done (  0.0 sec)
Split-RIJ-J gradient      (SHARK) ... done (  0.1 sec)
XC gradient                       ... done (  0.7 sec)
Dispersion correction             ... done (  0.0 sec)

-------------------
DISPERSION GRADIENT
-------------------

   1   O   :   -0.000615042   -0.000263690    0.000030363
   2   O   :   -0.000707777    0.000292265   -0.000052160
   3   N   :    0.000547287   -0.000693889    0.000108841
   4   C   :   -0.000322667    0.000002599   -0.000004774
   5   C   :    0.000112269    0.000817509   -0.000118128
   6   C   :    0.000198112   -0.000835100    0.000124782
   7   C   :    0.000585840    0.000599422   -0.000079841
   8   C   :    0.000841487   -0.000080485    0.000023062
   9   C   :   -0.000971344    0.000012204   -0.000014776
  10   H   :   -0.000055756    0.000508834   -0.000075209
  11   H   :    0.000020371   -0.000529694    0.000077740
  12   H   :    0.000249859    0.000368185   -0.000050494
  13   H   :    0.000434863   -0.000065458    0.000015426
  14   H   :   -0.000317500   -0.000132702    0.000015167

Difference to translation invariance:
           :    0.0000000000    0.0000000000    0.0000000000

Difference to rotation invariance:
           :    0.0000000000    0.0000000000    0.0000000000

Norm of the Dispersion gradient    ...    0.0026109967
RMS gradient                       ...    0.0004028855
MAX gradient                       ...    0.0009713442
SRB correction                   ... done

------------------
CARTESIAN GRADIENT
------------------

   1   O   :   -0.000796859    0.010138831   -0.001485548
   2   O   :    0.007272481   -0.010296694    0.001610251
   3   N   :   -0.002945163    0.001865975   -0.000312003
   4   C   :    0.009362720    0.003876649   -0.000453562
   5   C   :    0.001884409   -0.005698844    0.000870868
   6   C   :   -0.003657629   -0.000174092   -0.000011890
   7   C   :   -0.001966512    0.002068886   -0.000335994
   8   C   :    0.000942138    0.000299795   -0.000039404
   9   C   :   -0.014387479   -0.001613699    0.000033145
  10   H   :   -0.000895623    0.001357998   -0.000214507
  11   H   :   -0.002742299   -0.001682342    0.000207408
  12   H   :    0.001810212    0.001530891   -0.000196237
  13   H   :    0.004150759    0.000447006   -0.000005341
  14   H   :    0.001968845   -0.002120361    0.000332813

Difference to translation invariance:
           :   -0.0000000000    0.0000000000    0.0000000000

Difference to rotation invariance:
           :   -0.0000049611   -0.0000078757   -0.0000503058

Norm of the Cartesian gradient     ...    0.0263815254
RMS gradient                       ...    0.0040707577
MAX gradient                       ...    0.0143874793

-------
TIMINGS
-------

Total SCF gradient time     ....        0.874 sec

Densities                   ....       0.001 sec  (  0.1%)
One electron gradient       ....       0.018 sec  (  2.0%)
RI-J Coulomb gradient       ....       0.067 sec  (  7.7%)
XC gradient                 ....       0.730 sec  ( 83.5%)

Maximum memory used throughout the entire SCFGRAD-calculation: 31.2 MB
------------------------------------------------------------------------------
                         ORCA GEOMETRY RELAXATION STEP
------------------------------------------------------------------------------

Reading the OPT-File                    .... done
Getting information on internals        .... done
Copying old internal coords+grads       .... done
Making the new internal coordinates     .... (2022 redundants) done
Validating the new internal coordinates .... (2022 redundants) done
Calculating the B-matrix                .... done
Calculating the G,G- and P matrices     .... done
Transforming gradient to internals      .... done
Projecting the internal gradient        .... done
Number of atoms                         ....  14
Number of internal coordinates          ....  60
Current Energy                          ....  -436.663757332 Eh
Current gradient norm                   ....     0.026381525 Eh/bohr
Maximum allowed component of the step   ....  0.300
Current trust radius                    ....  0.300
Evaluating the initial hessian          ....  (Almloef) done
Projecting the Hessian                  .... done
Forming the augmented Hessian           .... done
Diagonalizing the augmented Hessian     .... done
Last element of RFO vector              ....  0.999274716
Lowest eigenvalues of augmented Hessian:
 -0.000734062  0.012542574  0.019181304  0.022693555  0.027469358
Length of the computed step             ....  0.038107053
The final length of the internal step   ....  0.038107053
Converting the step to Cartesian space:
 Initial RMS(Int)=    0.0049195994
Transforming coordinates:
 Iter   0:  RMS(Cart)=    0.0095429926 RMS(Int)=    2.2942618936
done
Storing new coordinates                 .... done

                                .--------------------.
          ----------------------|Geometry convergence|-------------------------
          Item                value                   Tolerance       Converged
          ---------------------------------------------------------------------
          RMS gradient        0.0026967257            0.0000300000      NO
          MAX gradient        0.0127049972            0.0001000000      NO
          RMS step            0.0049195994            0.0020000000      NO
          MAX step            0.0137592375            0.0040000000      NO
          ........................................................
          Max(Bonds)      0.0073      Max(Angles)    0.67
          Max(Dihed)        0.02      Max(Improp)    0.00
          ---------------------------------------------------------------------

The optimization has not yet converged - more geometry cycles are needed


    ---------------------------------------------------------------------------
                         Redundant Internal Coordinates
                            (Angstroem and degrees)

        Definition                    Value    dE/dq     Step     New-Value
    ----------------------------------------------------------------------------
     1. B(C   4,C   3)                1.3879 -0.000624  0.0007    1.3886   
     2. B(C   5,N   2)                1.3322  0.001303 -0.0010    1.3312   
     3. B(C   5,C   3)                1.3903 -0.004017  0.0035    1.3939   
     4. B(C   6,C   4)                1.3808  0.000545 -0.0004    1.3804   
     5. B(C   7,C   6)                1.3913  0.001134 -0.0011    1.3902   
     6. B(C   7,N   2)                1.3364  0.003567 -0.0029    1.3335   
     7. B(C   8,O   0)                1.3430 -0.007889  0.0063    1.3492   
     8. B(C   8,C   3)                1.4927  0.005905 -0.0073    1.4854   
     9. B(C   8,O   1)                1.2046 -0.012705  0.0061    1.2107   
    10. B(H   9,C   4)                1.0835  0.001640 -0.0023    1.0812   
    11. B(H  10,C   5)                1.0854  0.002803 -0.0040    1.0813   
    12. B(H  11,C   6)                1.0843  0.002276 -0.0033    1.0810   
    13. B(H  12,C   7)                1.0903  0.004119 -0.0060    1.0842   
    14. B(H  13,O   0)                0.9669 -0.002196  0.0023    0.9692   
    15. A(C   8,O   0,H  13)          107.29  0.003500   -0.54    106.75   
    16. A(C   5,N   2,C   7)          118.00  0.003207   -0.46    117.54   
    17. A(C   4,C   3,C   5)          118.57  0.001473   -0.16    118.42   
    18. A(C   5,C   3,C   8)          121.80 -0.004983    0.67    122.48   
    19. A(C   4,C   3,C   8)          119.62  0.003510   -0.52    119.10   
    20. A(C   3,C   4,H   9)          119.07 -0.001282    0.17    119.23   
    21. A(C   3,C   4,C   6)          119.21  0.002426   -0.31    118.90   
    22. A(C   6,C   4,H   9)          121.72 -0.001144    0.14    121.87   
    23. A(C   3,C   5,H  10)          120.06 -0.000252    0.06    120.12   
    24. A(N   2,C   5,H  10)          117.15  0.003012   -0.46    116.69   
    25. A(N   2,C   5,C   3)          122.80 -0.002760    0.39    123.19   
    26. A(C   4,C   6,C   7)          118.07 -0.001947    0.25    118.32   
    27. A(C   7,C   6,H  11)          120.31  0.000263   -0.01    120.30   
    28. A(C   4,C   6,H  11)          121.62  0.001684   -0.24    121.38   
    29. A(N   2,C   7,C   6)          123.35 -0.002398    0.28    123.63   
    30. A(C   6,C   7,H  12)          120.35  0.000500   -0.03    120.32   
    31. A(N   2,C   7,H  12)          116.30  0.001898   -0.25    116.05   
    32. A(O   0,C   8,O   1)          122.86 -0.000433    0.06    122.92   
    33. A(O   1,C   8,C   3)          124.03 -0.001155    0.16    124.19   
    34. A(O   0,C   8,C   3)          113.10  0.001588   -0.21    112.89   
    35. D(H   9,C   4,C   3,C   5)   -180.00  0.000001   -0.00   -180.00   
    36. D(C   6,C   4,C   3,C   8)    179.99 -0.000000    0.00    179.99   
    37. D(H   9,C   4,C   3,C   8)     -0.01 -0.000003    0.01     -0.01   
    38. D(C   6,C   4,C   3,C   5)      0.01  0.000003   -0.01     -0.00   
    39. D(N   2,C   5,C   3,C   8)   -179.99 -0.000000   -0.00   -179.99   
    40. D(N   2,C   5,C   3,C   4)     -0.01 -0.000003    0.01      0.00   
    41. D(C   3,C   5,N   2,C   7)      0.00  0.000001   -0.00      0.00   
    42. D(H  10,C   5,N   2,C   7)    180.00 -0.000002    0.00    180.00   
    43. D(H  10,C   5,C   3,C   4)    180.00 -0.000000    0.00    180.00   
    44. D(H  10,C   5,C   3,C   8)      0.01  0.000002   -0.01      0.01   
    45. D(H  11,C   6,C   4,H   9)      0.01  0.000003   -0.01      0.00   
    46. D(C   7,C   6,C   4,H   9)   -180.00  0.000001   -0.00   -180.00   
    47. D(C   7,C   6,C   4,C   3)     -0.00 -0.000001    0.00     -0.00   
    48. D(H  11,C   6,C   4,C   3)   -180.00  0.000001   -0.00   -180.00   
    49. D(C   6,C   7,N   2,C   5)     -0.00  0.000001   -0.00     -0.00   
    50. D(H  12,C   7,C   6,H  11)     -0.00  0.000001   -0.00     -0.00   
    51. D(H  12,C   7,C   6,C   4)   -179.99  0.000003   -0.01   -180.00   
    52. D(N   2,C   7,C   6,H  11)    179.99 -0.000003    0.01    180.00   
    53. D(N   2,C   7,C   6,C   4)      0.00 -0.000001    0.00      0.00   
    54. D(H  12,C   7,N   2,C   5)    179.99 -0.000003    0.01    180.00   
    55. D(O   1,C   8,C   3,C   5)    179.99 -0.000006    0.02    180.01   
    56. D(O   1,C   8,C   3,C   4)     -0.00 -0.000003    0.01      0.01   
    57. D(O   0,C   8,C   3,C   5)     -0.01  0.000001   -0.00     -0.01   
    58. D(O   0,C   8,C   3,C   4)   -179.99  0.000004   -0.01   -180.00   
    59. D(C   3,C   8,O   0,H  13)   -179.99 -0.000000    0.00   -179.99   
    60. D(O   1,C   8,O   0,H  13)      0.01  0.000007   -0.02     -0.00   
    ----------------------------------------------------------------------------

Geometry step timings:
Preparation and reading OPT file:      0.000 s (11.796 %)
Internal coordinates            :      0.000 s ( 1.653 %)
B/P matrices and projection     :      0.000 s (27.047 %)
Hessian update/contruction      :      0.000 s (12.397 %)
Making the step                 :      0.000 s (18.107 %)
Converting the step to Cartesian:      0.000 s ( 2.930 %)
Storing new data                :      0.000 s ( 1.503 %)
Checking convergence            :      0.000 s ( 0.150 %)
Final printing                  :      0.000 s (24.192 %)
Total time                      :      0.001 s

Time for energy+gradient        :      6.039 s
Time for complete geometry iter :      6.211 s

         *************************************************************
         *                GEOMETRY OPTIMIZATION CYCLE   2            *
         *************************************************************
---------------------------------
CARTESIAN COORDINATES (ANGSTROEM)
---------------------------------
  O     -2.487372   -1.248095    0.149306
  O     -2.608498    0.974605   -0.177481
  N      1.602305   -1.252304    0.204623
  C     -0.458511   -0.044942    0.000414
  C      0.235335    1.146462   -0.164573
  C      0.271759   -1.218258    0.181818
  C      1.615339    1.123315   -0.142699
  C      2.251485   -0.098525    0.044573
  C     -1.943647   -0.025235   -0.022232
  H     -0.317964    2.064488   -0.306280
  H     -0.240509   -2.161481    0.312926
  H      2.195512    2.026945   -0.267093
  H      3.334029   -0.154183    0.067218
  H     -3.449263   -1.132793    0.119481

----------------------------
CARTESIAN COORDINATES (A.U.)
----------------------------
  NO LB      ZA    FRAG     MASS         X           Y           Z
   0 O     8.0000    0    15.999   -4.700452   -2.358558    0.282147
   1 O     8.0000    0    15.999   -4.929347    1.841737   -0.335390
   2 N     7.0000    0    14.007    3.027918   -2.366512    0.386681
   3 C     6.0000    0    12.011   -0.866460   -0.084929    0.000783
   4 C     6.0000    0    12.011    0.444720    2.166500   -0.310999
   5 C     6.0000    0    12.011    0.513549   -2.302174    0.343586
   6 C     6.0000    0    12.011    3.052548    2.122758   -0.269663
   7 C     6.0000    0    12.011    4.254689   -0.186186    0.084231
   8 C     6.0000    0    12.011   -3.672961   -0.047688   -0.042013
   9 H     1.0000    0     1.008   -0.600866    3.901318   -0.578786
  10 H     1.0000    0     1.008   -0.454497   -4.084607    0.591344
  11 H     1.0000    0     1.008    4.148917    3.830372   -0.504732
  12 H     1.0000    0     1.008    6.300402   -0.291364    0.127024
  13 H     1.0000    0     1.008   -6.518163   -2.140668    0.225786

--------------------------------
INTERNAL COORDINATES (ANGSTROEM)
--------------------------------
 O      0   0   0     0.000000000000     0.00000000     0.00000000
 O      1   0   0     2.249856859136     0.00000000     0.00000000
 N      1   2   0     4.090053484857    93.25692234     0.00000000
 C      1   2   3     2.363476769863    62.23469471     0.00000000
 C      4   1   2     1.388556441439   150.83403726     0.00000000
 C      3   1   2     1.331177665706     1.42174372   359.95260108
 C      5   4   1     1.380370952598   118.90017657   179.99649495
 C      3   1   2     1.333512628266   118.96403824     0.00000000
 C      2   1   3     1.210705935809    30.22518200     0.00000000
 H      5   4   1     1.081199937212   119.23447154     0.00000000
 H      6   3   8     1.081331319382   116.68768874   180.00116222
 H      7   5   4     1.081028302680   121.37943474   180.00124507
 H      8   3   1     1.084211028582   116.04953924   179.99848621
 H      1   2   3     0.969236185208    79.89661556   180.00545072

---------------------------
INTERNAL COORDINATES (A.U.)
---------------------------
 O      0   0   0     0.000000000000     0.00000000     0.00000000
 O      1   0   0     4.251613304292     0.00000000     0.00000000
 N      1   2   0     7.729080959470    93.25692234     0.00000000
 C      1   2   3     4.466323818926    62.23469471     0.00000000
 C      4   1   2     2.623991395812   150.83403726     0.00000000
 C      3   1   2     2.515561223777     1.42174372   359.95260108
 C      5   4   1     2.608523063630   118.90017657   179.99649495
 C      3   1   2     2.519973663548   118.96403824     0.00000000
 C      2   1   3     2.287902647391    30.22518200     0.00000000
 H      5   4   1     2.043171777343   119.23447154     0.00000000
 H      6   3   8     2.043420053664   116.68768874   180.00116222
 H      7   5   4     2.042847435082   121.37943474   180.00124507
 H      8   3   1     2.048861915397   116.04953924   179.99848621
 H      1   2   3     1.831590949130    79.89661556   180.00545072



           ************************************************************
           *        Program running with 16 parallel MPI-processes    *
           *              working on a common directory               *
           ************************************************************
------------------------------------------------------------------------------
                   ___                                                        
                  /   \      - P O W E R E D   B Y -                         
                 /     \                                                     
                 |  |  |   _    _      __       _____    __    __             
                 |  |  |  | |  | |    /  \     |  _  \  |  |  /  |          
                  \  \/   | |  | |   /    \    | | | |  |  | /  /          
                 / \  \   | |__| |  /  /\  \   | |_| |  |  |/  /          
                |  |  |   |  __  | /  /__\  \  |    /   |      \           
                |  |  |   | |  | | |   __   |  |    \   |  |\   \          
                \     /   | |  | | |  |  |  |  | |\  \  |  | \   \       
                 \___/    |_|  |_| |__|  |__|  |_| \__\ |__|  \__/        
                                                                              
                      - O R C A' S   B I G   F R I E N D -                    
                                      &                                       
                       - I N T E G R A L  F E E D E R -                       
                                                                              
 v1 FN, 2020, v2 2021, v3 2022-2024                                           
------------------------------------------------------------------------------


----------------------
SHARK INTEGRAL PACKAGE
----------------------

Number of atoms                             ...     14
Number of basis functions                   ...    196
Number of shells                            ...     98
Maximum angular momentum                    ...      2
Integral batch strategy                     ... SHARK/LIBINT Hybrid
RI-J (if used) integral strategy            ... SPLIT-RIJ (Revised 2003 algorithm where possible)
Printlevel                                  ...      1
Contraction scheme used                     ... SEGMENTED contraction
Prescreening option                         ... SCHWARTZ
   Thresh                                   ... 2.500e-11
   Tcut                                     ... 2.500e-12
   Tpresel                                  ... 2.500e-12 
Coulomb Range Separation                    ... NOT USED
Exchange Range Separation                   ... NOT USED
Multipole approximations                    ... NOT USED
Finite Nucleus Model                        ... NOT USED
CABS basis                                  ... NOT available
Auxiliary Coulomb fitting basis             ... AVAILABLE
   # of basis functions in Aux-J            ...    300
   # of shells in Aux-J                     ...    128
   Maximum angular momentum in Aux-J        ...      2
Auxiliary J/K fitting basis                 ... NOT available
Auxiliary Correlation fitting basis         ... NOT available
Auxiliary 'external' fitting basis          ... NOT available

Checking pre-screening integrals            ... done (  0.0 sec) Dimension = 98
Check shell pair data                       ... done (  0.0 sec)
Shell pair information
Shell pair cut-off parameter TPreSel        ...   2.5e-12
Total number of shell pairs                 ...      4851
Shell pairs after pre-screening             ...      4400
Total number of primitive shell pairs       ...     18168
Primitive shell pairs kept                  ...     11705
          la=0 lb=0:   1555 shell pairs
          la=1 lb=0:   1526 shell pairs
          la=1 lb=1:    372 shell pairs
          la=2 lb=0:    597 shell pairs
          la=2 lb=1:    288 shell pairs
          la=2 lb=2:     62 shell pairs

Calculating one electron integrals          ... done (  0.0 sec)
Calculating RI/J V-Matrix + Cholesky decomp.... done (  0.0 sec)
Calculating Nuclear repulsion               ... done (  0.0 sec) ENN=    409.478156130169 Eh

Diagonalization of the overlap matrix:
Smallest eigenvalue                        ... 4.796e-05
Time for diagonalization                   ...    0.003 sec
Threshold for overlap eigenvalues          ... 1.000e-07
Number of eigenvalues below threshold      ... 0
Time for construction of square roots      ...    0.001 sec
Total time needed                          ...    0.004 sec

-------------------
DFT GRID GENERATION
-------------------

General Integration Accuracy     IntAcc      ... 4.959
Radial Grid Type                 RadialGrid  ... OptM3 with GC (2021)
Angular Grid (max. ang.)         AngularGrid ... 6 (Lebedev-590)
[...]
     24       0.038653   0.208337  -0.019522  -0.045319   0.052006  -0.037106
     25       0.034290   0.185034  -0.003317  -0.031346  -0.010483  -0.001441
     26      -0.004506  -0.024345   0.000220   0.003988   0.002235  -0.000282
     27       0.434268   0.001985  -0.281890   0.232408  -0.296513   0.424255
     28       0.283935  -0.012021  -0.226818   0.011433  -0.004210   0.336973
     29      -0.035684   0.001752   0.029360   0.001445  -0.003351  -0.043550
     30      -0.565178   0.356559  -0.334793   0.512146   0.324864   0.381981
     31       0.322200  -0.175170   0.021486  -0.263767  -0.056487  -0.236545
     32      -0.054626   0.030503  -0.007506   0.045443   0.012535   0.039635
     33       0.311829   0.113648  -0.081531   0.467562  -0.357027  -0.136523
     34      -0.152153  -0.037099  -0.045295  -0.340216   0.047958   0.245085
     35       0.026445   0.006967   0.005526   0.056070  -0.011810  -0.037698
     36      -0.008674  -0.000599  -0.133114   0.071348  -0.113359  -0.098001
     37      -0.376205  -0.017970  -0.780966  -0.398084  -0.541607   0.122161
     38       0.054891   0.002622   0.112415   0.059167   0.077686  -0.019170
     39      -0.015300  -0.173352  -0.001598   0.005548  -0.001114   0.002173
     40      -0.081198  -0.817178   0.000304   0.042792  -0.030850   0.042317
     41       0.011678   0.117347  -0.000071  -0.006185   0.004508  -0.006152
                 36         37         38         39         40         41    
      0      -0.033747  -0.000023   0.000234  -0.000125   0.000215   0.060915
      1       0.063681   0.000001  -0.000395   0.000154   0.000027  -0.006981
      2      -0.009776  -0.000000   0.000059  -0.000024  -0.000001   0.001840
      3      -0.242090  -0.000040  -0.000211   0.000143   0.000046  -0.000030
      4       0.345018   0.000033  -0.000080   0.000234  -0.000532  -0.000765
      5      -0.053775  -0.000005   0.000010  -0.000032   0.000078   0.000112
      6       0.022897  -0.000186   0.000189  -0.000625  -0.000237   0.000034
      7       0.014850  -0.000958  -0.000582   0.000083  -0.000075  -0.000024
      8      -0.001867   0.000138   0.000086  -0.000020   0.000008   0.000004
      9      -0.059413  -0.000027   0.001694  -0.000133  -0.001597  -0.000800
     10       0.090409  -0.000109  -0.002357   0.000765  -0.002010  -0.000027
     11      -0.014025   0.000016   0.000367  -0.000113   0.000273  -0.000007
     12      -0.017400   0.000992   0.001324   0.014397  -0.041989   0.000121
     13      -0.043284  -0.001063  -0.005337  -0.028694   0.068518  -0.000032
     14       0.006102   0.000169   0.000799   0.004390  -0.010584   0.000006
     15      -0.018868  -0.000131   0.035639  -0.011327  -0.001654  -0.000170
     16      -0.022646  -0.002785   0.074317  -0.022376  -0.004877  -0.000050
     17       0.003058   0.000406  -0.010393   0.003121   0.000691   0.000005
     18       0.007695   0.010318   0.013269   0.038401   0.021237  -0.000065
     19       0.019726   0.011095   0.021032   0.063381   0.028156   0.000111
     20      -0.002781  -0.001484  -0.002898  -0.008756  -0.003834  -0.000017
     21      -0.005517  -0.084495   0.000850   0.017906   0.006052  -0.000004
     22      -0.021567   0.007485  -0.001858  -0.003236  -0.002181  -0.000039
     23       0.003079  -0.002229   0.000283   0.000713   0.000400   0.000006
     24       0.433631   0.000032   0.000599  -0.000034  -0.000822   0.003009
     25      -0.537437  -0.000003   0.001112  -0.000685   0.000904   0.000850
     26       0.084513   0.000001  -0.000155   0.000100  -0.000143  -0.000084
     27       0.074656  -0.010269  -0.031178  -0.193943   0.463296  -0.000123
     28      -0.008750   0.016383   0.056080   0.333154  -0.780706   0.000611
     29       0.002274  -0.002535  -0.008623  -0.051330   0.120398  -0.000091
     30      -0.019252   0.019423  -0.437902   0.131522   0.024426  -0.000162
     31      -0.031303   0.037111  -0.837152   0.250703   0.048233   0.000396
     32       0.004359  -0.005172   0.116613  -0.034912  -0.006727  -0.000062
     33       0.049188  -0.106648  -0.152730  -0.452760  -0.206904  -0.000106
     34      -0.006491  -0.157488  -0.239461  -0.715208  -0.319931  -0.000340
     35       0.001622   0.021605   0.032976   0.098538   0.044021   0.000048
     36      -0.000269   0.974664  -0.017041  -0.182587  -0.057820  -0.000126
     37       0.024094  -0.057621   0.002314   0.014717   0.006024  -0.000013
     38      -0.003523   0.021503  -0.000568  -0.004601  -0.001657   0.000000
     39      -0.097275  -0.000023  -0.000138   0.000639  -0.000152  -0.991253
     40      -0.536600   0.000178  -0.001747   0.000228   0.000767   0.112929
     41       0.077277  -0.000027   0.000250  -0.000024  -0.000115  -0.029840


-----------
IR SPECTRUM
-----------

 Mode   freq       eps      Int      T**2         TX        TY        TZ
       cm**-1   L/(mol*cm) km/mol    a.u.
----------------------------------------------------------------------------
  6:     56.33   0.000668    3.37  0.003699  (-0.000753  0.008832  0.060170)
  7:    150.05   0.000004    0.02  0.000008  (-0.000052  0.000418  0.002857)
  8:    214.57   0.000707    3.58  0.001029  (-0.032071 -0.000425 -0.000342)
  9:    363.60   0.000850    4.29  0.000729  ( 0.000375 -0.003879 -0.026722)
 10:    383.53   0.001019    5.15  0.000829  ( 0.023874  0.015981 -0.002010)
 11:    414.37   0.000027    0.14  0.000021  ( 0.000059 -0.000664 -0.004479)
 12:    489.36   0.001911    9.66  0.001219  (-0.014429 -0.031479  0.004405)
 13:    594.91   0.015311   77.37  0.008031  ( 0.001181 -0.012975 -0.088665)
 14:    623.17   0.002489   12.58  0.001246  (-0.022950 -0.026581  0.003615)
 15:    652.83   0.006619   33.45  0.003164  (-0.054261 -0.014764  0.001356)
 16:    699.68   0.002743   13.86  0.001223  (-0.000456  0.005066  0.034606)
 17:    740.99   0.013476   68.10  0.005675  (-0.001028  0.010908  0.074535)
 18:    784.00   0.001460    7.38  0.000581  ( 0.024053 -0.001468  0.000468)
 19:    824.78   0.000598    3.02  0.000226  (-0.000198  0.002156  0.014889)
 20:    930.84   0.000058    0.29  0.000019  (-0.000047  0.000637  0.004366)
 21:    963.46   0.000169    0.86  0.000055  (-0.000094  0.001060  0.007327)
 22:    977.96   0.000091    0.46  0.000029  (-0.000084  0.000762  0.005329)
 23:   1034.19   0.002948   14.90  0.000889  ( 0.029001 -0.006821  0.001362)
 24:   1048.75   0.000953    4.82  0.000284  ( 0.007656  0.014858 -0.002084)
 25:   1102.21   0.034723  175.48  0.009831  (-0.068609 -0.070949  0.009481)
 26:   1127.02   0.002734   13.82  0.000757  (-0.015785 -0.022326  0.003052)
 27:   1201.91   0.024926  125.97  0.006472  (-0.058706 -0.054531  0.007200)
 28:   1222.71   0.010626   53.70  0.002712  ( 0.050757  0.011608 -0.001030)
 29:   1307.61   0.000058    0.29  0.000014  (-0.001040  0.003532 -0.000525)
 30:   1358.82   0.003116   15.75  0.000716  ( 0.020185  0.017405 -0.002275)
 31:   1372.15   0.013706   69.26  0.003117  ( 0.052451  0.019015 -0.002081)
 32:   1440.86   0.007116   35.96  0.001541  (-0.034931 -0.017792  0.002135)
 33:   1503.41   0.000566    2.86  0.000117  ( 0.001108 -0.010665  0.001584)
 34:   1593.36   0.001525    7.71  0.000299  ( 0.000886  0.017081 -0.002483)
 35:   1618.86   0.010674   53.94  0.002058  (-0.045144  0.004255 -0.001227)
 36:   1760.41   0.063332  320.05  0.011227  ( 0.060781 -0.085752  0.013373)
 37:   3110.77   0.004649   23.50  0.000466  (-0.021558 -0.001281 -0.000101)
 38:   3144.84   0.002791   14.10  0.000277  ( 0.011165  0.012231 -0.001638)
 39:   3148.06   0.001673    8.46  0.000166  ( 0.011026  0.006606 -0.000817)
 40:   3164.06   0.001343    6.78  0.000132  ( 0.006240  0.009578 -0.001316)
 41:   3686.85   0.012591   63.63  0.001066  (-0.031912 -0.006855  0.000575)

* The epsilon (eps) is given for a Dirac delta lineshape.
** The dipole moment derivative (T) already includes vibrational overlap.

The first frequency considered to be a vibration is 6
The total number of vibrations considered is 36


--------------------------
THERMOCHEMISTRY AT 298.15K
--------------------------

Temperature         ...   298.15 K
Pressure            ...     1.00 atm
Total Mass          ...   123.11 AMU
Quasi RRHO          ...     True
Cut-Off Frequency   ...     1.00 cm^-1

Throughout the following assumptions are being made:
  (1) The electronic state is orbitally nondegenerate
  (2) There are no thermally accessible electronically excited states
  (3) Hindered rotations indicated by low frequency modes are not
      treated as such but are treated as vibrations and this may
      cause some error
  (4) All equations used are the standard statistical mechanics
      equations for an ideal gas
  (5) All vibrations are strictly harmonic

freq.      56.33  E(vib)   ...       0.52 
freq.     150.05  E(vib)   ...       0.40 
freq.     214.57  E(vib)   ...       0.34 
freq.     363.60  E(vib)   ...       0.22 
freq.     383.53  E(vib)   ...       0.20 
freq.     414.37  E(vib)   ...       0.19 
freq.     489.36  E(vib)   ...       0.15 
freq.     594.91  E(vib)   ...       0.10 
freq.     623.17  E(vib)   ...       0.09 
freq.     652.83  E(vib)   ...       0.08 
freq.     699.68  E(vib)   ...       0.07 
freq.     740.99  E(vib)   ...       0.06 
freq.     784.00  E(vib)   ...       0.05 
freq.     824.78  E(vib)   ...       0.04 
freq.     930.84  E(vib)   ...       0.03 
freq.     963.46  E(vib)   ...       0.03 
freq.     977.96  E(vib)   ...       0.03 
freq.    1034.19  E(vib)   ...       0.02 
freq.    1048.75  E(vib)   ...       0.02 
freq.    1102.21  E(vib)   ...       0.02 
freq.    1127.02  E(vib)   ...       0.01 
freq.    1201.91  E(vib)   ...       0.01 
freq.    1222.71  E(vib)   ...       0.01 
freq.    1307.61  E(vib)   ...       0.01 
freq.    1358.82  E(vib)   ...       0.01 
freq.    1372.15  E(vib)   ...       0.01 
freq.    1440.86  E(vib)   ...       0.00 
freq.    1503.41  E(vib)   ...       0.00 
freq.    1593.36  E(vib)   ...       0.00 
freq.    1618.86  E(vib)   ...       0.00 
freq.    1760.41  E(vib)   ...       0.00 
freq.    3110.77  E(vib)   ...       0.00 
freq.    3144.84  E(vib)   ...       0.00 
freq.    3148.06  E(vib)   ...       0.00 
freq.    3164.06  E(vib)   ...       0.00 
freq.    3686.85  E(vib)   ...       0.00 

------------
INNER ENERGY
------------

The inner energy is: U= E(el) + E(ZPE) + E(vib) + E(rot) + E(trans)
    E(el)   - is the total energy from the electronic structure calculation
              = E(kin-el) + E(nuc-el) + E(el-el) + E(nuc-nuc)
    E(ZPE)  - the the zero temperature vibrational energy from the frequency calculation
    E(vib)  - the the finite temperature correction to E(ZPE) due to population
              of excited vibrational states
    E(rot)  - is the rotational thermal energy
    E(trans)- is the translational thermal energy

Summary of contributions to the inner energy U:
Electronic energy                ...   -436.66433127 Eh
Zero point energy                ...      0.10208767 Eh      64.06 kcal/mol
Thermal vibrational correction   ...      0.00433105 Eh       2.72 kcal/mol
Thermal rotational correction    ...      0.00141627 Eh       0.89 kcal/mol
Thermal translational correction ...      0.00141627 Eh       0.89 kcal/mol
-----------------------------------------------------------------------
Total thermal energy                   -436.55508001 Eh


Summary of corrections to the electronic energy:
(perhaps to be used in another calculation)
Total thermal correction                  0.00716359 Eh       4.50 kcal/mol
Non-thermal (ZPE) correction              0.10208767 Eh      64.06 kcal/mol
-----------------------------------------------------------------------
Total correction                          0.10925126 Eh      68.56 kcal/mol


--------
ENTHALPY
--------

The enthalpy is H = U + kB*T
                kB is Boltzmann's constant
Total thermal energy              ...   -436.55508001 Eh 
Thermal Enthalpy correction       ...      0.00094421 Eh       0.59 kcal/mol
-----------------------------------------------------------------------
Total Enthalpy                    ...   -436.55413580 Eh


Note: Only C1 symmetry has been detected, increase convergence thresholds 
      if your molecule has a higher symmetry. Symmetry factor of 1.0 is   
      used for the rotational entropy correction. 
 

Note: Rotational entropy computed according to Herzberg 
Infrared and Raman Spectra, Chapter V,1, Van Nostrand Reinhold, 1945 
Point Group:  C1, Symmetry Number:   1  
Rotational constants in cm-1:     0.132488     0.041673     0.031701 

Vibrational entropy computed according to the QRRHO of S. Grimme
Chem.Eur.J. 2012 18 9955 using a reference frequency of 100.0 cm-1


-------
ENTROPY
-------

The entropy contributions are T*S = T*(S(el)+S(vib)+S(rot)+S(trans))
     S(el)   - electronic entropy
     S(vib)  - vibrational entropy
     S(rot)  - rotational entropy
     S(trans)- translational entropy
The entropies will be listed as multiplied by the temperature to get
units of energy

Electronic entropy                ...      0.00000000 Eh      0.00 kcal/mol
Vibrational entropy               ...      0.00709326 Eh      4.45 kcal/mol
Rotational entropy                ...      0.01359466 Eh      8.53 kcal/mol
Translational entropy             ...      0.01916571 Eh     12.03 kcal/mol
-----------------------------------------------------------------------
Final entropy term                ...      0.03985363 Eh     25.01 kcal/mol

In case the symmetry of your molecule has not been determined correctly
or in case you have a reason to use a different symmetry number we print 
out the resulting rotational entropy values for sn=1,12:

 non-linear molecules -----------------------------------
|  sn= 1 | S(rot)=       0.01359466 Eh      8.53 kcal/mol|
|  sn= 2 | S(rot)=       0.01294021 Eh      8.12 kcal/mol|
|  sn= 3 | S(rot)=       0.01255737 Eh      7.88 kcal/mol|
|  sn= 4 | S(rot)=       0.01228575 Eh      7.71 kcal/mol|
|  sn= 5 | S(rot)=       0.01207506 Eh      7.58 kcal/mol|
|  sn= 6 | S(rot)=       0.01190292 Eh      7.47 kcal/mol|
|  sn= 7 | S(rot)=       0.01175737 Eh      7.38 kcal/mol|
|  sn= 8 | S(rot)=       0.01163129 Eh      7.30 kcal/mol|
|  sn= 9 | S(rot)=       0.01152008 Eh      7.23 kcal/mol|
|  sn=10 | S(rot)=       0.01142060 Eh      7.17 kcal/mol|
|  sn=11 | S(rot)=       0.01133061 Eh      7.11 kcal/mol|
|  sn=12 | S(rot)=       0.01124846 Eh      7.06 kcal/mol|
 linear molecules ---------------------------------------
|  Dinfh | S(rot)=       0.00858455 Eh      5.39 kcal/mol|
|  Cinfv | S(rot)=       0.00923901 Eh      5.80 kcal/mol|
 --------------------------------------------------------


-------------------
GIBBS FREE ENERGY
-------------------

The Gibbs free energy is G = H - T*S

Total enthalpy                    ...   -436.55413580 Eh 
Total entropy correction          ...     -0.03985363 Eh    -25.01 kcal/mol
-----------------------------------------------------------------------
Final Gibbs free energy         ...   -436.59398943 Eh

For completeness - the Gibbs free energy minus the electronic energy
G-E(el)                           ...      0.07034184 Eh     44.14 kcal/mol


Maximum memory used throughout the entire PROP-calculation: 44.9 MB

--------------------------------
SUGGESTED CITATIONS FOR THIS RUN
--------------------------------

Below you find a list of papers that are relevant to this ORCA run
We neither can nor want to force you to cite these papers, but we appreciate if you do
You receive ORCA, which is the product of decades of hard work by many enthusiastic individuals, for free
The only thing we kindly ask in return is that you cite our papers,
We deeply appreciate it, if you show your appreciation for ORCA by not just citing the generic ORCA reference.

Please note that relegating all ORCA citations to the supporting information does *not* help us.
SI sections are not indexed - citations you put there will not count into any citation statistics
But we need these citations in order to attract the funding resources that allow us to do what we are doing

Therefore, if you are a happy ORCA user, please consider citing a few of the papers listed below in the main body of your paper

In addition to the list printed below, the program has created the file m1_00_Vitamin_B3-QM3_0-B97-3C-TZ.bibtex that contains the list in bibtex format
You can import this file easily into all common literature databanks and citation aid programs


List of essential papers. We consider these as the minimum necessary citations

  1. Neese,F.
     Software update: the ORCA program system, version 5.0
     WIRES Comput. Molec. Sci., 2022 12(1)e1606
     doi.org/10.1002/wcms.1606

List of papers to cite with high priority. The work reported in these papers was absolutely
necessary for this run to complete.
Our perspective: the developers of density functionals and basis sets usually get cited in chemistry papers
Good! But without the algorithms to do something with them, the functionals or basis sets would not do anything.
Hence, in our opinion, the algorithm design and method developments papers are equally worthy of getting cited

  1. Neese,F.
     An improvement of the resolution of the identity approximation for the formation of the Coulomb matrix
     J. Comp. Chem., 2003 24(14)1740-1747
     doi.org/10.1002/jcc.10318
  2. Bykov,D.; Petrenko,T.; Izsak,R.; Kossmann,S.; Becker,U.; Valeev,E.; Neese,F.
     Efficient implementation of the analytic second derivatives of Hartree-Fock and hybrid DFT energies: a detailed analysis of different approximations
     Molec. Phys., 2015 113 1961-1977
     doi.org/10.1080/00268976.2015.1025114
  3. Neese,F.
     The SHARK Integral Generation and Digestion System
     J. Comp. Chem., 2022  1-16
     doi.org/10.1002/jcc.26942
  4. Grimme,S.; Antony,J.; Ehrlich,S.; Krieg,H.
     A consistent and accurate ab initio parametrization of density functional dispersion correction (DFT-D) for the 94 elements H-Pu
     J. Chem. Phys., 2010 132 154104
     doi.org/10.1063/1.3382344
  5. Grimme,S.; Ehrlich,S.; Goerigk,L.
     Effect of the damping function in dispersion corrected density functional theory
     J. Comput. Chem., 2011 32(7)1456-1465
     doi.org/10.1002/jcc.21759

List of suggested additional citations. These are papers that are important in the 'surrounding' of 
of this run, or papers that preceded the highly important papers. If you like your results we are grateful for a citation.

  1. Neese,F.
     The ORCA program system
     WIRES Comput. Molec. Sci., 2012 2(1)73-78
     doi.org/10.1002/wcms.81
  2. Neese,F.
     Software update: the ORCA program system, version 4.0
     WIRES Comput. Molec. Sci., 2018 8(1)1-6
     doi.org/10.1002/wcms.1327
  3. Neese,F.; Wennmohs,F.; Becker,U.; Riplinger,C.
     The ORCA quantum chemistry program package
     J. Chem. Phys., 2020 152 Art. No. L224108
     doi.org/10.1063/5.0004608

List of optional additional citations

  1. Neese,F.
     Approximate second-order SCF convergence for spin unrestricted wavefunctions
     Chem. Phys. Lett., 2000 325(1-3)93-98
     doi.org/10.1016/s0009-2614(00)00662-x

Timings for individual modules:

Sum of individual times          ...       55.115 sec (=   0.919 min)
Startup calculation              ...       10.599 sec (=   0.177 min)  19.2 %
SCF iterations                   ...       12.949 sec (=   0.216 min)  23.5 %
Property integrals               ...       12.646 sec (=   0.211 min)  22.9 %
SCF Response                     ...        6.574 sec (=   0.110 min)  11.9 %
Property calculations            ...        5.867 sec (=   0.098 min)  10.6 %
SCF Gradient evaluation          ...        6.465 sec (=   0.108 min)  11.7 %
Geometry relaxation              ...        0.015 sec (=   0.000 min)   0.0 %
                             ****ORCA TERMINATED NORMALLY****
TOTAL RUN TIME: 0 days 0 hours 0 minutes 56 seconds 475 msec
