
                                 *****************
                                 * O   R   C   A *
                                 *****************

                                            #,                                       
                                            ###                                      
                                            ####                                     
                                            #####                                    
                                            ######                                   
                                           ########,                                 
                                     ,,################,,,,,                         
                               ,,#################################,,                 
                          ,,##########################################,,             
                       ,#########################################, ''#####,          
                    ,#############################################,,   '####,        
                  ,##################################################,,,,####,       
                ,###########''''           ''''###############################       
              ,#####''   ,,,,##########,,,,          '''####'''          '####       
            ,##' ,,,,###########################,,,                        '##       
           ' ,,###''''                  '''############,,,                           
         ,,##''                                '''############,,,,        ,,,,,,###''
      ,#''                                            '''#######################'''  
     '                                                          ''''####''''         
             ,#######,   #######,   ,#######,      ##                                
            ,#'     '#,  ##    ##  ,#'     '#,    #''#        ,####,   ,####,        
            ##       ##  ##   ,#'  ##            #'  '#       #'       #'  '#        
            ##       ##  #######   ##           ,######,      #####,   #    #        
            '#,     ,#'  ##    ##  '#,     ,#' ,#      #,     #,   #   #,  ,#        
             '#######'   ##     ##  '#######'  #'      '#     '####' # '####'        



                #########################################################
                #                        -***-                          #
                #          Department of theory and spectroscopy        #
                #                                                       #
                #                      Frank Neese                      #
                #                                                       #
                #     Directorship, Architecture, Infrastructure        #
                #                    SHARK, DRIVERS                     #
                #        Core code/Algorithms in most modules           #
                #                                                       #
                #        Max Planck Institute fuer Kohlenforschung      #
                #                Kaiser Wilhelm Platz 1                 #
                #                 D-45470 Muelheim/Ruhr                 #
                #                      Germany                          #
                #                                                       #
                #                  All rights reserved                  #
                #                        -***-                          #
                #########################################################


                         Program Version 6.0.1  -  RELEASE   -


 With contributions from (in alphabetic order):
[Max-Planck-Institut fuer Kohlenforschung]                               
  Daniel Aravena         : Magnetic Suceptibility                        
  Michael Atanasov       : Ab Initio Ligand Field Theory (pilot matlab implementation)
  Alexander A. Auer      : GIAO ZORA, VPT2 properties, NMR spectrum      
  Ute Becker             : All parallelization in ORCA, NUMFREQ, NUMCALC 
  Giovanni Bistoni       : ED, misc. LED, open-shell LED, HFLD           
  Martin Brehm           : Molecular dynamics                            
  Dmytro Bykov           : pre 5.0 version of the SCF Hessian            
  Marcos Casanova-Páez   : Triplet and SCS-CIS(D). UHF-(DLPNO)-IP/EA/STEOM-CCSD. UHF-CVS-IP/STEOM-CCSD   
  Vijay G. Chilkuri      : MRCI spin determinant printing, contributions to CSF-ICE 
  Pauline Colinet        : FMM embedding                                 
  Dipayan Datta          : RHF DLPNO-CCSD density                        
  Achintya Kumar Dutta   : EOM-CC, STEOM-CC                              
  Nicolas Foglia         : Exact transition moments, OPA infrastructure, MCD improvements    
  Dmitry Ganyushin       : Spin-Orbit,Spin-Spin,Magnetic field MRCI      
  Miquel Garcia-Rates    : C-PCM and meta-GGA Hessian, CCSD/C-PCM, Gaussian charge scheme 
  Tiago L. C. Gouveia    : GS-ROHF, GS-ROCIS                             
  Yang Guo               : DLPNO-NEVPT2, F12-NEVPT2, CIM, IAO-localization        
  Andreas Hansen         : Spin unrestricted coupled pair/coupled cluster methods 
  Ingolf Harden          : AUTO-CI MPn and infrastructure                
  Benjamin Helmich-Paris : MC-RPA, TRAH-(SCF,CASSCF), AVAS, COSX integrals, SCF dyn. polar. 
  Lee Huntington         : MR-EOM, pCC                                   
  Robert Izsak           : Overlap fitted RIJCOSX, COSX-SCS-MP3, EOM     
  Riya Kayal             : Wick's Theorem for AUTO-CI, AUTO-CI UHF-CCSDT 
  Emily Kempfer          : AUTO-CI, RHF CISDT and CCSDT                  
  Christian Kollmar      : KDIIS, OOCD, Brueckner-CCSD(T), CCSD density, CASPT2, CASPT2-K, improved NEVPT2 
  Axel Koslowski         : Symmetry handling                             
  Simone Kossmann        : meta-GGA functionals, TD-DFT gradient, OOMP2, (MP2 Hessian; deprecated post 5.0) 
  Lucas Lang             : DCDCAS                                        
  Marvin Lechner         : AUTO-CI (C++ implementation), FIC-MRCC        
  Spencer Leger          : CASSCF response                               
  Dagmar Lenk            : GEPOL surface, SMD, ORCA-2-JSON               
  Dimitrios Liakos       : Extrapolation schemes; Compound Job, initial MDCI parallelization 
  Dimitrios Manganas     : Further ROCIS development; embedding schemes. LFT, Crystal Embedding 
  Dimitrios Pantazis     : SARC Basis sets                               
  Anastasios Papadopoulos: AUTO-CI, single reference methods and gradients 
  Taras Petrenko         : pre 6.0 DFT Hessian and TD-DFT gradient, (ASA, deprecated), ECA, 1-Electron XAS/XES, NRVS 
  Peter Pinski           : DLPNO-MP2, DLPNO-MP2 Gradient                 
  Christoph Reimann      : Effective Core Potentials                     
  Marius Retegan         : Local ZFS, SOC                                
  Christoph Riplinger    : Optimizer, TS searches, QM/MM, DLPNO-CCSD(T), (RO)-DLPNO pert. Triples 
  Michael Roemelt        : Original ROCIS implementation                 
  Masaaki Saitow         : Open-shell DLPNO-CCSD energy and density      
  Barbara Sandhoefer     : DKH picture change effects                    
  Kantharuban Sivalingam : CASSCF convergence/infrastructure, NEVPT2 and variants, FIC-MRCI 
  Bernardo de Souza      : ESD, SOC TD-DFT                               
  Georgi L. Stoychev     : AutoAux, RI-MP2 NMR, DLPNO-MP2 response, X2C  
  Van Anh Tran           : RI-MP2 g-tensors                              
  Willem Van den Heuvel  : Paramagnetic NMR                              
  Zikuan Wang            : NOTCH, Electric field optimization            
  Frank Wennmohs         : Technical directorship and infrastructure     
  Hang Xu                : AUTO-CI-Response properties                   
                                                                         
[FACCTs GmbH]                                                            
  Markus Bursch, Miquel Garcia-Rates, Christoph Riplinger, Bernardo de Souza, Georgi L. Stoychev 
                                                                 
  APM, Basis sets (HGBS, AHGBS, def-TZVP (Ac-Lr), def2-XVPD (La-Lu)), CI-OPT, improved COSX, DLPNO-Multilevel,           
  DOCKER, DRACO, updates on ESD, GOAT, IRC, LR-CPCM, MBIS, meta-GGA TD-DFT gradient, ML-optimized integration grids, 
  MM, NACMEs, nearIR, NEB, NEB-TS, NL-DFT gradient (VV10), 2- and 3-layer-ONIOM, interface openCOSMO-RS, QMMM,   
  Crystal-QMMM, SF, symmetry and pop. for TD-DFT, r2SCAN hybrids, SOLVATOR                                   
                                                                         
[Other institutions]                                                     
  V. Asgeirsson          : NEB                                           
  Christoph Bannwarth    : sTDA-DFT, sTD-DFT, PBEh-3c, B97-3c, D3        
  Sebastian Ehlert       : rSCAN, r2SCAN, r2SCAN-3c, D4, dhf basis sets  
  Marvin Friede          : D4 for Fr, Ra, Ac-Lr                          
  Lars Goerigk           : TD-DFT with DH, B97 family of functionals     
  Stefan Grimme          : VdW corrections, initial TS optimization, DFT functionals, gCP, sTDA/sTD-DF 
  Waldemar Hujo          : DFT-NL                                        
  H. Jonsson             : NEB                                           
  Holger Kruse           : gCP                                           
  Marcel Mueller         : wB97X-3c, vDZP basis set                      
  Hagen Neugebauer       : wr2SCAN                                       
  Tobias Risthaus        : range-separated hybrid DFT                    
  Lukas Wittmann         : regularized MP2, r2SCAN double-hybrids, wr2SCAN        
                                                                         
We gratefully acknowledge several colleagues who have allowed us to      
interface, adapt or use parts of their codes:                            
  Ed Valeev, F. Pavosevic, A. Kumar             : LibInt (2-el integral package), F12 methods 
  Garnet Chan, S. Sharma, J. Yang, R. Olivares  : DMRG                   
  Ulf Ekstrom                                   : XCFun DFT Library      
  Mihaly Kallay                                 : mrcc  (arbitrary order and MRCC methods)
  Frank Weinhold                                : gennbo (NPA and NBO analysis)           
  Simon Mueller                                 : openCOSMO-RS                            
  Christopher J. Cramer and Donald G. Truhlar   : smd solvation model                     
  S Lehtola, MJT Oliveira, MAL Marques          : LibXC Library                           
  Liviu Ungur et al                             : ANISO software                          


 Your calculation uses the libint2 library for the computation of 2-el integrals
 For citations please refer to: http://libint.valeyev.net

 Your ORCA version has been built with support for libXC version: 6.2.2
 For citations please refer to: https://libxc.gitlab.io

 This ORCA versions uses:
   CBLAS   interface :  Fast vector & matrix operations
   LAPACKE interface :  Fast linear algebra routines
   SCALAPACK package :  Parallel linear algebra routines
   Shared memory     :  Shared parallel matrices
   BLAS/LAPACK       :  OpenBLAS 0.3.27  USE64BITINT DYNAMIC_ARCH NO_AFFINITY Zen SINGLE_THREADED
        Core in use  :  Zen
   Copyright (c) 2011-2014, The OpenBLAS Project


NOTE: MaxCore=6000 MB was set to SCF,MP2,MDCI,CIPSI,MRCI and CIS
      => If you want to overwrite this, your respective input block should be placed after the MaxCore statement
Your calculation utilizes the atom-pairwise dispersion correction
with the Becke-Johnson damping scheme (D3BJ)


Your calculation employs the composite approach B97-3c by Grimme and coworkers.
For the correct reference, please check the publication list of the Grimme group:
http://www.thch.uni-bonn.de/tc/index.php?section=publikationen&subsection=grimme#2017
   

XCFun DFT library Copyright 2009-2010 Ulf Ekstrom and contributors.
See http://admol.org/xcfun for more information.
This is free software; see the source code for copying conditions.
There is ABSOLUTELY NO WARRANTY; not even for MERCHANTABILITY or FITNESS FOR A PARTICULAR PURPOSE.
For details see the documentation.
Scientific users of this library should cite U. Ekstrom, L. Visscher, R. Bast, A. J. Thorvaldsen and K. Ruud;
J.Chem.Theor.Comp. 2010, DOI: 10.1021/ct100117s
XCFun Version 0.99 

================================================================================

----- Orbital basis set information -----
Your calculation utilizes the basis: def2-mTZVP
----- AuxJ basis set information -----
Your calculation utilizes the basis: def2-mTZVP/J
================================================================================
                                        WARNINGS
                       Please study these warnings very carefully!
================================================================================


WARNING: Geometry Optimization
  ===> : Switching off AutoStart
         For restart on a previous wavefunction, please use MOREAD

================================================================================
                                       INPUT FILE
================================================================================
NAME = m1_00_Vitamin_B9-GFN1_00006-B97-3C-TZ.inp
|  1> %pal nprocs 16 end
|  2> %MaxCore 6000
|  3> # put your comments here
|  4> ! B97-3C  OPT  FREQ DEFGRID3 NOTRAH
|  5> %scf MaxIter 800 end
|  6> %output
|  7> Print [P_Hirshfeld] 1
|  8> end
|  9> %geom
| 10> MaxIter 3000
| 11>  TolE 1e-6 #TolE 5e-6 Energy change (a.u.)
| 12>  TolRMSG 3e-5 #TolRMSG 1e-4 RMS gradient (a.u.)
| 13>  TolMaxG 1e-4 #TolMaxG 3e-3 Max. element of gradient (a.u.)
| 14>  TolRMSD 2e-3 #TolRMSD 2e-3 RMS displacement (a.u.)
| 15>  TolMaxD 4e-3 #TolMaxD 4e-3 Max. displacement (a.u.)
| 16> end
| 17> * xyz 0 1
| 18>  O -5.65830116396481 5.54543787388717 -4.33143330998249
| 19>  O -5.71088748819824 0.82516674899601 -3.23546080000734
| 20>  O -7.09447064230213 4.41687745671186 -5.60899739397405
| 21>  O -4.81347932542647 2.17901842059403 -7.77578866761426
| 22>  O -2.83431114581103 1.45343858536306 -7.03758394094372
| 23>  O -5.24764640285724 -0.20908032234999 -8.65361990990263
| 24>  N -5.93530319970478 2.04658350249896 -5.11449522974517
| 25>  N -8.96749472665269 -3.47327408557631 -6.60439502842716
| 26>  N -6.54064535209109 -2.69648673790765 -8.33916427025075
| 27>  N -4.98367991766159 -4.80879859638486 -7.39779047097648
| 28>  N -3.34866450495794 -1.14835314011890 -7.86689292116048
| 29>  N -3.13992807525809 -3.41218309300524 -7.25377446590152
| 30>  N -1.37970008111518 -1.96056607334156 -6.98887786745813
| 31>  C -5.33646414783724 3.20290154239977 -4.48575246189387
| 32>  C -3.84848464200197 3.37265562924162 -4.83632213400701
| 33>  C -3.59687557752821 3.60770132051253 -6.33491529294947
| 34>  C -6.17195662712515 0.93403029415229 -4.36016077922869
| 35>  C -6.97588074708496 -0.14128207185924 -4.99602428805109
| 36>  C -6.13958361317420 4.42613850292102 -4.88222628791596
| 37>  C -8.34930143887476 -2.33445525317744 -6.07518464948360
| 38>  C -8.58829022568617 -3.87442396395455 -7.97012054243433
| 39>  C -7.47450650851472 -0.09756096290718 -6.30002314079035
| 40>  C -7.22808005782736 -1.28089194500246 -4.22325526607115
| 41>  C -8.16387444466910 -1.17312313436771 -6.83026543530316
| 42>  C -7.90592355394751 -2.36211973692445 -4.74906917356509
| 43>  C -3.70773712987562 2.29878465184627 -7.09142969344147
| 44>  C -7.08241001982938 -3.86374687581733 -8.03271330510927
| 45>  C -5.22951718063540 -2.54290690865262 -8.11759609054214
| 46>  C -6.28071441214785 -4.92890891145677 -7.59082217381881
| 47>  C -4.44322486371932 -3.59235044239173 -7.60240678943483
| 48>  C -4.65904843488357 -1.21609511500401 -8.26702773180365
| 49>  C -2.65813183374171 -2.21065098478024 -7.35861020324687
| 50>  H -5.40939509007192 3.07482578402927 -3.39568708751557
| 51>  H -3.46671579375778 4.22637949607721 -4.27120601568759
| 52>  H -3.31053967422186 2.47725118644960 -4.51451337192672
| 53>  H -2.57768763055425 3.97872694513376 -6.46271874302477
| 54>  H -4.30041800849764 4.33718892039387 -6.73959128185410
| 55>  H -6.45625843838516 2.22795955471462 -5.96059861986544
| 56>  H -9.00451421370631 -3.16460996583863 -8.68805048417922
| 57>  H -9.01052465291638 -4.86523700955154 -8.15085288003944
| 58>  H -7.30875993542109 0.76793132327626 -6.93153086977064
| 59>  H -6.85730703305596 -1.31223542462728 -3.20431634517276
| 60>  H -8.86604223606289 -4.26036394748344 -5.96950792042851
| 61>  H -8.52356141564787 -1.12085131332279 -7.84980669541890
| 62>  H -8.07081199632244 -3.24922244493487 -4.14645722691744
| 63>  H -6.72029985424249 -5.90181828718893 -7.38896389056085
| 64>  H -6.21001945912896 6.29731033183964 -4.60374928310645
| 65>  H -2.95014007893071 -0.20952164749890 -7.79982173635423
| 66>  H -4.91829769944221 1.25495269277391 -8.19398067813895
| 67>  H -1.12801925787147 -1.00666715476720 -6.79244646804414
| 68>  H -0.95077804677329 -2.67628221373570 -6.42708868652789
| 69> *
| 70> 
| 71> 
| 72> 
| 73> 
| 74>                          ****END OF INPUT****
================================================================================

                       *****************************
                       * Geometry Optimization Run *
                       *****************************

Geometry optimization settings:
Update method            Update   .... BFGS
Choice of coordinates    CoordSys .... (2022) Redundant Internals
Initial Hessian          InHess   .... Almloef's Model
Max. no of cycles        MaxIter  .... 3000

Convergence Tolerances:
Energy Change            TolE     ....  1.0000e-06 Eh
Max. Gradient            TolMAXG  ....  1.0000e-04 Eh/bohr
RMS Gradient             TolRMSG  ....  3.0000e-05 Eh/bohr
Max. Displacement        TolMAXD  ....  4.0000e-03 bohr
RMS Displacement         TolRMSD  ....  2.0000e-03 bohr
Strict Convergence                .... False

------------------------------------------------------------------------------
                        ORCA OPTIMIZATION COORDINATE SETUP
------------------------------------------------------------------------------

The optimization will be done in redundant internal coordinates (2022)
Making redundant internal coordinates   ...  (2022 redundants) done
Evaluating the initial hessian          ...  (Almloef) done
Evaluating the coordinates              ...  done
Calculating the B-matrix                .... done
Calculating the G-matrix                .... done
Diagonalizing the G-matrix              .... done
Small eigenvalue found = 1.312e-03
Small eigenvalue found = 2.662e-03
Small eigenvalue found = 7.188e-03
Small eigenvalue found = 9.600e-03
Small eigenvalue found = 1.385e-02
Small eigenvalue found = 2.128e-02
Small eigenvalue found = 2.592e-02
The first mode is                       ....  109
The number of degrees of freedom        ....  147

    -----------------------------------------------------------------
                    Redundant Internal Coordinates


    -----------------------------------------------------------------
         Definition                    Initial Value    Approx d2E/dq
    -----------------------------------------------------------------
      1. B(C  13,N   6)                  1.4460         0.455498   
      2. B(C  14,C  13)                  1.5381         0.362602   
      3. B(C  15,C  14)                  1.5376         0.363236   
      4. B(C  16,O   1)                  1.2204         1.043410   
      5. B(C  16,N   6)                  1.3648         0.613776   
      6. B(C  17,C  16)                  1.4856         0.439810   
      7. B(C  18,C  13)                  1.5161         0.393174   
      8. B(C  18,O   2)                  1.2000         1.124470   
      9. B(C  18,O   0)                  1.3371         0.679632   
     10. B(C  19,N   7)                  1.3997         0.540025   
     11. B(C  20,N   7)                  1.4731         0.412429   
     12. B(C  21,C  17)                  1.3968         0.609461   
     13. B(C  22,C  17)                  1.3998         0.602666   
     14. B(C  23,C  21)                  1.3832         0.640621   
     15. B(C  23,C  19)                  1.3976         0.607644   
     16. B(C  24,C  22)                  1.3802         0.647654   
     17. B(C  24,C  19)                  1.3985         0.605485   
     18. B(C  25,C  15)                  1.5159         0.393476   
     19. B(C  25,O   4)                  1.2167         1.057668   
     20. B(C  25,O   3)                  1.3059         0.762189   
     21. B(C  26,C  20)                  1.5072         0.406185   
     22. B(C  26,N   8)                  1.3228         0.716173   
     23. B(C  27,N   8)                  1.3386         0.676003   
     24. B(C  28,C  26)                  1.4045         0.592437   
     25. B(C  28,N   9)                  1.3168         0.732229   
     26. B(C  29,C  27)                  1.4089         0.582881   
     27. B(C  29,N  11)                  1.3611         0.622282   
     28. B(C  29,N   9)                  1.3467         0.655988   
     29. B(C  30,C  27)                  1.4520         0.497602   
     30. B(C  30,N  10)                  1.3718         0.598317   
     31. B(C  30,O   5)                  1.2288         1.011673   
     32. B(C  31,N  12)                  1.3541         0.638447   
     33. B(C  31,N  11)                  1.2988         0.782403   
     34. B(C  31,N  10)                  1.3652         0.613063   
     35. B(H  32,C  13)                  1.1000         0.347132   
     36. B(H  33,C  14)                  1.0927         0.356573   
     37. B(H  34,C  14)                  1.0930         0.356126   
     38. B(H  35,C  15)                  1.0921         0.357299   
     39. B(H  36,C  15)                  1.0913         0.358414   
     40. B(H  37,O   2)                  2.3070         0.003689   
     41. B(H  37,N   6)                  1.0100         0.432643   
     42. B(H  38,C  20)                  1.0920         0.357441   
     43. B(H  39,C  20)                  1.0921         0.357348   
     44. B(H  40,C  21)                  1.0841         0.367942   
     45. B(H  41,C  22)                  1.0848         0.367107   
     46. B(H  42,N   7)                  1.0163         0.422794   
     47. B(H  43,C  23)                  1.0824         0.370307   
     48. B(H  44,C  24)                  1.0850         0.366741   
     49. B(H  45,C  28)                  1.0865         0.364728   
     50. B(H  46,O   0)                  0.9715         0.498401   
     51. B(H  47,O   4)                  1.8330         0.021046   
     52. B(H  47,N  10)                  1.0221         0.413868   
     53. B(H  48,O   4)                  2.3916         0.002704   
     54. B(H  48,O   5)                  1.5694         0.055418   
     55. B(H  48,O   3)                  1.0197         0.417575   
     56. B(H  49,N  12)                  1.0059         0.439261   
     57. B(H  50,N  12)                  1.0059         0.439278   
     58. A(C  18,O   0,H  46)          109.1459         0.373283   
     59. A(C  25,O   3,H  48)          112.6483         0.369302   
     60. A(C  13,N   6,H  37)          115.7366         0.340483   
     61. A(C  13,N   6,C  16)          118.9031         0.404810   
     62. A(C  16,N   6,H  37)          121.3276         0.358044   
     63. A(C  19,N   7,H  42)          110.4772         0.349002   
     64. A(C  20,N   7,H  42)          110.0340         0.333614   
     65. A(C  19,N   7,C  20)          117.2847         0.388971   
     66. A(C  26,N   8,C  27)          117.6486         0.446603   
     67. A(C  28,N   9,C  29)          117.0905         0.445965   
     68. A(C  31,N  10,H  47)          119.5438         0.355286   
     69. A(C  30,N  10,H  47)          115.9092         0.353823   
     70. A(C  30,N  10,C  31)          123.5978         0.424830   
     71. A(C  29,N  11,C  31)          117.1933         0.447060   
     72. A(C  31,N  12,H  50)          115.0659         0.361392   
     73. A(H  49,N  12,H  50)          117.3214         0.304722   
     74. A(C  31,N  12,H  49)          117.6891         0.361389   
     75. A(C  14,C  13,H  32)          107.6293         0.320804   
     76. A(C  18,C  13,H  32)          108.5406         0.325090   
     77. A(N   6,C  13,C  14)          112.9408         0.371669   
     78. A(C  14,C  13,C  18)          111.3347         0.364679   
     79. A(N   6,C  13,C  18)          108.1863         0.376895   
     80. A(N   6,C  13,H  32)          108.0786         0.331076   
     81. A(C  15,C  14,H  34)          109.3680         0.322242   
     82. A(H  33,C  14,H  34)          108.4107         0.289885   
     83. A(C  13,C  14,H  33)          107.8395         0.322216   
     84. A(C  13,C  14,C  15)          113.4097         0.359781   
     85. A(C  13,C  14,H  34)          108.5786         0.322150   
     86. A(C  15,C  14,H  33)          109.1139         0.322308   
     87. A(H  35,C  15,H  36)          109.3384         0.290269   
     88. A(C  14,C  15,H  36)          110.9836         0.322581   
     89. A(C  14,C  15,C  25)          110.0250         0.364836   
     90. A(C  25,C  15,H  36)          110.1813         0.326847   
     91. A(C  25,C  15,H  35)          107.6496         0.326679   
     92. A(C  14,C  15,H  35)          108.5836         0.322416   
     93. A(N   6,C  16,C  17)          116.5708         0.404914   
     94. A(O   1,C  16,C  17)          122.2993         0.445228   
     95. A(O   1,C  16,N   6)          121.1013         0.469978   
     96. A(C  21,C  17,C  22)          118.4605         0.430530   
     97. A(C  16,C  17,C  22)          116.7753         0.406221   
     98. A(C  16,C  17,C  21)          124.7591         0.407027   
     99. A(O   0,C  18,O   2)          122.8437         0.485527   
    100. A(O   2,C  18,C  13)          125.0064         0.442235   
    101. A(O   0,C  18,C  13)          112.1489         0.404188   
    102. A(C  23,C  19,C  24)          119.1221         0.430661   
    103. A(N   7,C  19,C  24)          118.8446         0.418921   
    104. A(N   7,C  19,C  23)          122.0333         0.419187   
    105. A(N   7,C  20,H  38)          109.5360         0.327268   
    106. A(N   7,C  20,C  26)          107.0838         0.372577   
    107. A(H  38,C  20,H  39)          109.4849         0.290152   
    108. A(C  26,C  20,H  39)          112.6960         0.328403   
    109. A(N   7,C  20,H  39)          107.5161         0.327254   
    110. A(C  26,C  20,H  38)          110.4204         0.328417   
    111. A(C  17,C  21,H  40)          120.9456         0.353172   
    112. A(C  23,C  21,H  40)          118.2727         0.356170   
    113. A(C  17,C  21,C  23)          120.7615         0.435284   
    114. A(C  17,C  22,C  24)          121.0594         0.435261   
    115. A(C  24,C  22,H  41)          120.2039         0.356693   
    116. A(C  17,C  22,H  41)          118.7179         0.352367   
    117. A(C  21,C  23,H  43)          119.2850         0.356558   
    118. A(C  19,C  23,H  43)          120.3278         0.353376   
    119. A(C  19,C  23,C  21)          120.3421         0.435051   
    120. A(C  19,C  24,C  22)          120.0949         0.435627   
    121. A(C  22,C  24,H  44)          120.2335         0.356633   
    122. A(C  19,C  24,H  44)          119.6447         0.352586   
    123. A(O   4,C  25,C  15)          121.6911         0.437433   
    124. A(O   3,C  25,C  15)          113.7441         0.412530   
    125. A(O   3,C  25,O   4)          124.5626         0.490349   
    126. A(C  20,C  26,C  28)          123.4953         0.399357   
    127. A(N   8,C  26,C  28)          120.5520         0.438960   
    128. A(N   8,C  26,C  20)          115.1540         0.410305   
    129. A(C  29,C  27,C  30)          119.9356         0.412755   
    130. A(N   8,C  27,C  30)          118.2067         0.421045   
    131. A(N   8,C  27,C  29)          121.4475         0.433149   
    132. A(C  26,C  28,H  45)          120.4386         0.350963   
    133. A(N   9,C  28,H  45)          116.9328         0.361568   
    134. A(N   9,C  28,C  26)          122.6284         0.440721   
    135. A(N  11,C  29,C  27)          121.9685         0.426759   
    136. A(N   9,C  29,C  27)          120.2913         0.430815   
    137. A(N   9,C  29,N  11)          117.7045         0.433059   
    138. A(N  10,C  30,C  27)          112.9803         0.411996   
    139. A(O   5,C  30,C  27)          126.3737         0.452770   
    140. A(O   5,C  30,N  10)          120.5876         0.465146   
    141. A(N  11,C  31,N  12)          119.9370         0.449144   
    142. A(N  10,C  31,N  12)          115.8172         0.429801   
    143. A(N  10,C  31,N  11)          124.2151         0.445852   
    144. D(C  14,C  13,N   6,H  37)    -98.2449         0.017705   
    145. D(C  18,C  13,N   6,C  16)   -132.2795         0.017705   
    146. D(C  18,C  13,N   6,H  37)     25.4576         0.017705   
    147. D(H  32,C  13,N   6,C  16)    -14.9365         0.017705   
    148. D(C  14,C  13,N   6,C  16)    104.0180         0.017705   
    149. D(C  15,C  14,C  13,N   6)     62.6223         0.010538   
    150. D(C  15,C  14,C  13,H  32)   -178.1631         0.010538   
    151. D(H  33,C  14,C  13,C  18)     61.6155         0.010538   
    152. D(C  15,C  14,C  13,C  18)    -59.3266         0.010538   
    153. D(H  33,C  14,C  13,N   6)   -176.4356         0.010538   
    154. D(H  33,C  14,C  13,H  32)    -57.2210         0.010538   
    155. D(H  35,C  15,C  14,C  13)    165.0375         0.010572   
    156. D(C  25,C  15,C  14,H  34)     43.9637         0.010572   
    157. D(C  25,C  15,C  14,H  33)    162.3965         0.010572   
    158. D(C  25,C  15,C  14,C  13)    -77.3820         0.010572   
    159. D(H  35,C  15,C  14,H  34)    -73.6169         0.010572   
    160. D(H  35,C  15,C  14,H  33)     44.8160         0.010572   
    161. D(C  17,C  16,N   6,H  37)     14.3187         0.030457   
    162. D(C  17,C  16,N   6,C  13)    170.7705         0.030457   
    163. D(O   1,C  16,N   6,H  37)   -167.5816         0.030457   
    164. D(O   1,C  16,N   6,C  13)    -11.1298         0.030457   
    165. D(C  22,C  17,C  16,N   6)   -179.6227         0.013199   
    166. D(C  22,C  17,C  16,O   1)      2.3023         0.013199   
    167. D(C  21,C  17,C  16,N   6)      1.2164         0.013199   
    168. D(C  21,C  17,C  16,O   1)   -176.8586         0.013199   
    169. D(O   0,C  18,C  13,H  32)     62.4053         0.011491   
    170. D(O   0,C  18,C  13,C  14)    -55.8845         0.011491   
    171. D(O   0,C  18,C  13,N   6)    179.4509         0.011491   
    172. D(C  13,C  18,O   0,H  46)   -179.2578         0.034400   
    173. D(O   2,C  18,C  13,N   6)     -0.9138         0.011491   
    174. D(O   2,C  18,O   0,H  46)      1.0978         0.034400   
    175. D(O   2,C  18,C  13,C  14)    123.7508         0.011491   
    176. D(C  24,C  19,N   7,H  42)    -10.0127         0.023200   
    177. D(C  24,C  19,N   7,C  20)   -137.1754         0.023200   
    178. D(C  23,C  19,N   7,H  42)    170.0617         0.023200   
    179. D(C  23,C  19,N   7,C  20)     42.8990         0.023200   
    180. D(H  39,C  20,N   7,C  19)    169.5718         0.014509   
    181. D(H  38,C  20,N   7,H  42)    161.0842         0.014509   
    182. D(H  38,C  20,N   7,C  19)    -71.5381         0.014509   
    183. D(C  26,C  20,N   7,H  42)    -79.1564         0.014509   
    184. D(C  26,C  20,N   7,C  19)     48.2212         0.014509   
    185. D(H  40,C  21,C  17,C  22)    179.5839         0.025651   
    186. D(H  40,C  21,C  17,C  16)     -1.2682         0.025651   
    187. D(C  23,C  21,C  17,C  22)     -2.0803         0.025651   
    188. D(C  23,C  21,C  17,C  16)    177.0676         0.025651   
    189. D(H  41,C  22,C  17,C  21)   -178.9702         0.025051   
    190. D(H  41,C  22,C  17,C  16)      1.8140         0.025051   
    191. D(C  24,C  22,C  17,C  21)      2.6053         0.025051   
    192. D(C  24,C  22,C  17,C  16)   -176.6106         0.025051   
    193. D(H  43,C  23,C  21,H  40)     -0.4678         0.028517   
    194. D(H  43,C  23,C  21,C  17)   -178.8472         0.028517   
    195. D(C  19,C  23,C  21,H  40)    177.0963         0.028517   
    196. D(C  19,C  23,C  21,C  17)     -1.2831         0.028517   
    197. D(H  43,C  23,C  19,C  24)   -178.3268         0.025490   
    198. D(H  43,C  23,C  19,N   7)      1.5986         0.025490   
    199. D(C  21,C  23,C  19,C  24)      4.1346         0.025490   
    200. D(C  21,C  23,C  19,N   7)   -175.9400         0.025490   
    201. D(C  19,C  24,C  22,C  17)      0.2426         0.029191   
    202. D(H  44,C  24,C  19,C  23)    178.2651         0.025299   
    203. D(H  44,C  24,C  19,N   7)     -1.6627         0.025299   
    204. D(C  22,C  24,C  19,C  23)     -3.6122         0.025299   
    205. D(C  19,C  24,C  22,H  41)   -178.1587         0.029191   
    206. D(C  22,C  24,C  19,N   7)    176.4600         0.025299   
    207. D(H  44,C  24,C  22,H  41)     -0.0471         0.029191   
    208. D(H  44,C  24,C  22,C  17)    178.3542         0.029191   
    209. D(O   4,C  25,C  15,H  35)     43.5186         0.011508   
    210. D(O   4,C  25,C  15,C  14)    -74.6398         0.011508   
    211. D(O   3,C  25,C  15,H  36)    -17.8443         0.011508   
    212. D(O   3,C  25,C  15,H  35)   -136.9998         0.011508   
    213. D(O   3,C  25,C  15,C  14)    104.8418         0.011508   
    214. D(C  15,C  25,O   3,H  48)   -173.6847         0.044277   
    215. D(O   4,C  25,O   3,H  48)      5.7797         0.044277   
    216. D(C  28,C  26,C  20,N   7)     82.7677         0.012228   
    217. D(N   8,C  26,C  20,H  39)    154.9551         0.012228   
    218. D(N   8,C  26,C  20,H  38)     32.1687         0.012228   
    219. D(N   8,C  26,C  20,N   7)    -87.0217         0.012228   
    220. D(C  28,C  26,N   8,C  27)     -4.8803         0.038582   
    221. D(C  28,C  26,C  20,H  38)   -158.0418         0.012228   
    222. D(C  20,C  26,N   8,C  27)    165.2353         0.038582   
    223. D(C  30,C  27,N   8,C  26)   -171.3534         0.034001   
    224. D(C  29,C  27,N   8,C  26)      1.2888         0.034001   
    225. D(H  45,C  28,C  26,C  20)     13.9246         0.024164   
    226. D(H  45,C  28,C  26,N   8)   -176.8137         0.024164   
    227. D(N   9,C  28,C  26,C  20)   -165.8803         0.024164   
    228. D(N   9,C  28,C  26,N   8)      3.3814         0.024164   
    229. D(H  45,C  28,N   9,C  29)   -177.7627         0.040514   
    230. D(C  26,C  28,N   9,C  29)      2.0486         0.040514   
    231. D(N  11,C  29,C  27,N   8)   -173.6352         0.023353   
    232. D(N   9,C  29,C  27,C  30)    176.6572         0.023353   
    233. D(N   9,C  29,C  27,N   8)      4.1402         0.023353   
    234. D(C  27,C  29,N  11,C  31)      2.9939         0.028426   
    235. D(N   9,C  29,N  11,C  31)   -174.8365         0.028426   
    236. D(C  27,C  29,N   9,C  28)     -5.6007         0.031851   
    237. D(N  11,C  29,C  27,C  30)     -1.1182         0.023353   
    238. D(N  11,C  29,N   9,C  28)    172.2677         0.031851   
    239. D(N  10,C  30,C  27,N   8)    172.8945         0.016864   
    240. D(O   5,C  30,C  27,C  29)   -177.0731         0.016864   
    241. D(O   5,C  30,C  27,N   8)     -4.3159         0.016864   
    242. D(C  27,C  30,N  10,H  47)   -169.8690         0.028834   
    243. D(C  27,C  30,N  10,C  31)     -1.0987         0.028834   
    244. D(O   5,C  30,N  10,H  47)      7.5220         0.028834   
    245. D(N  10,C  30,C  27,C  29)      0.1373         0.016864   
    246. D(O   5,C  30,N  10,C  31)    176.2923         0.028834   
    247. D(N  11,C  31,N  12,H  50)    -15.4552         0.033164   
    248. D(N  11,C  31,N  12,H  49)   -160.3076         0.033164   
    249. D(N  10,C  31,N  12,H  50)    166.4737         0.033164   
    250. D(N  10,C  31,N  12,H  49)     21.6213         0.033164   
    251. D(N  12,C  31,N  11,C  29)    178.0311         0.046935   
    252. D(N  10,C  31,N  11,C  29)     -4.0688         0.046935   
    253. D(N  12,C  31,N  10,H  47)    -10.3499         0.030381   
    254. D(N  12,C  31,N  10,C  30)   -178.7341         0.030381   
    255. D(N  11,C  31,N  10,H  47)    171.6715         0.030381   
    256. D(N  11,C  31,N  10,C  30)      3.2873         0.030381   
    -----------------------------------------------------------------

Number of atoms                         .... 51
Number of degrees of freedom            .... 256


         *************************************************************
         *                GEOMETRY OPTIMIZATION CYCLE   1            *
         *************************************************************
---------------------------------
CARTESIAN COORDINATES (ANGSTROEM)
---------------------------------
  O     -5.658301    5.545438   -4.331433
  O     -5.710887    0.825167   -3.235461
  O     -7.094471    4.416877   -5.608997
  O     -4.813479    2.179018   -7.775789
  O     -2.834311    1.453439   -7.037584
  O     -5.247646   -0.209080   -8.653620
  N     -5.935303    2.046584   -5.114495
  N     -8.967495   -3.473274   -6.604395
  N     -6.540645   -2.696487   -8.339164
  N     -4.983680   -4.808799   -7.397790
  N     -3.348665   -1.148353   -7.866893
  N     -3.139928   -3.412183   -7.253774
  N     -1.379700   -1.960566   -6.988878
  C     -5.336464    3.202902   -4.485752
  C     -3.848485    3.372656   -4.836322
  C     -3.596876    3.607701   -6.334915
  C     -6.171957    0.934030   -4.360161
  C     -6.975881   -0.141282   -4.996024
  C     -6.139584    4.426139   -4.882226
  C     -8.349301   -2.334455   -6.075185
  C     -8.588290   -3.874424   -7.970121
  C     -7.474507   -0.097561   -6.300023
  C     -7.228080   -1.280892   -4.223255
  C     -8.163874   -1.173123   -6.830265
  C     -7.905924   -2.362120   -4.749069
  C     -3.707737    2.298785   -7.091430
  C     -7.082410   -3.863747   -8.032713
  C     -5.229517   -2.542907   -8.117596
  C     -6.280714   -4.928909   -7.590822
  C     -4.443225   -3.592350   -7.602407
  C     -4.659048   -1.216095   -8.267028
  C     -2.658132   -2.210651   -7.358610
  H     -5.409395    3.074826   -3.395687
  H     -3.466716    4.226379   -4.271206
  H     -3.310540    2.477251   -4.514513
  H     -2.577688    3.978727   -6.462719
  H     -4.300418    4.337189   -6.739591
  H     -6.456258    2.227960   -5.960599
  H     -9.004514   -3.164610   -8.688050
  H     -9.010525   -4.865237   -8.150853
  H     -7.308760    0.767931   -6.931531
  H     -6.857307   -1.312235   -3.204316
  H     -8.866042   -4.260364   -5.969508
  H     -8.523561   -1.120851   -7.849807
  H     -8.070812   -3.249222   -4.146457
  H     -6.720300   -5.901818   -7.388964
  H     -6.210019    6.297310   -4.603749
  H     -2.950140   -0.209522   -7.799822
  H     -4.918298    1.254953   -8.193981
  H     -1.128019   -1.006667   -6.792446
  H     -0.950778   -2.676282   -6.427089

----------------------------
CARTESIAN COORDINATES (A.U.)
----------------------------
  NO LB      ZA    FRAG     MASS         X           Y           Z
   0 O     8.0000    0    15.999  -10.692640   10.479359   -8.185223
   1 O     8.0000    0    15.999  -10.792013    1.559339   -6.114135
   2 O     8.0000    0    15.999  -13.406607    8.346689  -10.599469
   3 O     8.0000    0    15.999   -9.096158    4.117748  -14.694111
   4 O     8.0000    0    15.999   -5.356072    2.746601  -13.299106
   5 O     8.0000    0    15.999   -9.916615   -0.395105  -16.352972
   6 N     7.0000    0    14.007  -11.216098    3.867482   -9.664995
   7 N     7.0000    0    14.007  -16.946109   -6.563537  -12.480498
   8 N     7.0000    0    14.007  -12.360028   -5.095621  -15.758737
   9 N     7.0000    0    14.007   -9.417790   -9.087312  -13.979798
  10 N     7.0000    0    14.007   -6.328059   -2.170073  -14.866273
  11 N     7.0000    0    14.007   -5.933604   -6.448092  -13.707647
  12 N     7.0000    0    14.007   -2.607255   -3.704933  -13.207065
  13 C     6.0000    0    12.011  -10.084456    6.052607   -8.476844
  14 C     6.0000    0    12.011   -7.272582    6.373395   -9.139324
  15 C     6.0000    0    12.011   -6.797110    6.817567  -11.971255
  16 C     6.0000    0    12.011  -11.663308    1.765061   -8.239510
  17 C     6.0000    0    12.011  -13.182504   -0.266984   -9.441118
  18 C     6.0000    0    12.011  -11.602132    8.364190   -9.226071
  19 C     6.0000    0    12.011  -15.777893   -4.411481  -11.480435
  20 C     6.0000    0    12.011  -16.229516   -7.321600  -15.061345
  21 C     6.0000    0    12.011  -14.124770   -0.184364  -11.905318
  22 C     6.0000    0    12.011  -13.659092   -2.420535   -7.980796
  23 C     6.0000    0    12.011  -15.427487   -2.216881  -12.907331
  24 C     6.0000    0    12.011  -14.940030   -4.463759   -8.974440
  25 C     6.0000    0    12.011   -7.006608    4.344073  -13.400860
  26 C     6.0000    0    12.011  -13.383815   -7.301423  -15.179628
  27 C     6.0000    0    12.011   -9.882355   -4.805398  -15.340033
  28 C     6.0000    0    12.011  -11.868830   -9.314288  -14.344575
  29 C     6.0000    0    12.011   -8.396478   -6.788559  -14.366467
  30 C     6.0000    0    12.011   -8.804326   -2.298087  -15.622418
  31 C     6.0000    0    12.011   -5.023141   -4.177525  -13.905758
  32 H     1.0000    0     1.008  -10.222275    5.810579   -6.416919
  33 H     1.0000    0     1.008   -6.551143    7.986700   -8.071410
  34 H     1.0000    0     1.008   -6.256013    4.681326   -8.531194
  35 H     1.0000    0     1.008   -4.871124    7.518704  -12.212769
  36 H     1.0000    0     1.008   -8.126612    8.196099  -12.735982
  37 H     1.0000    0     1.008  -12.200560    4.210233  -11.263899
  38 H     1.0000    0     1.008  -17.016066   -5.980246  -16.418036
  39 H     1.0000    0     1.008  -17.027424   -9.193966  -15.402880
  40 H     1.0000    0     1.008  -13.811555    1.451180  -13.098695
  41 H     1.0000    0     1.008  -12.958432   -2.479766   -6.055280
  42 H     1.0000    0     1.008  -16.754392   -8.050921  -11.280735
  43 H     1.0000    0     1.008  -16.107197   -2.118102  -14.833985
  44 H     1.0000    0     1.008  -15.251624   -6.140141   -7.835669
  45 H     1.0000    0     1.008  -12.699526  -11.152820  -13.963118
  46 H     1.0000    0     1.008  -11.735236   11.900192   -8.699825
  47 H     1.0000    0     1.008   -5.574957   -0.395939  -14.739527
  48 H     1.0000    0     1.008   -9.294236    2.371517  -15.484379
  49 H     1.0000    0     1.008   -2.131647   -1.902325  -12.835864
  50 H     1.0000    0     1.008   -1.796710   -5.057440  -12.145437

--------------------------------
INTERNAL COORDINATES (ANGSTROEM)
--------------------------------
 O      0   0   0     0.000000000000     0.00000000     0.00000000
 O      1   0   0     4.846120154990     0.00000000     0.00000000
 O      1   2   0     2.228991111339    68.25164038     0.00000000
 O      3   1   2     3.860818420584   103.56105589   292.41958796
 O      4   3   1     2.233499272213   121.75829458    29.51312416
 O      4   3   1     2.581105256884   128.88677680   145.62732586
 N      2   1   3     2.252330278944    44.29131299    34.73467408
 N      6   4   3     5.356449858889   123.40334622   341.82434951
 N      6   4   3     2.820978431003   148.76047209   332.79304631
 N      9   6   4     2.787864304702   116.72750294   256.55454686
 N      6   4   3     2.259934740112    97.16933222   233.10729457
 N     10   9   6     2.317476284747    90.49789647     0.85253515
 N     12  10   9     2.296903300317   176.13680833    72.21049717
 C      7   2   1     1.446028038306    91.69836437    18.00181667
 C     14   7   2     1.538115260568   112.94079928    98.87752370
 C     15  14   7     1.537639442242   113.40974511    62.62226435
 C      2   1   3     1.220404058333    73.06980788    20.11445294
 C     17   2   1     1.485568267365   122.29927474   197.84809874
 C      3   1   2     1.200038018554    30.26374275   340.34956432
 C      8   6   4     1.399691001351    48.86093418   340.72641718
 C      8   6   4     1.473066006018    68.43764280   159.30600906
 C     18  17   2     1.396764902650   124.75911958   183.14138701
 C     18  17   2     1.399816815386   116.77529781     2.30230456
 C     22  18  17     1.383191608912   120.76146661   177.06763396
 C     23  18  17     1.380219405954   121.05936213   183.38939080
 C      5   4   3     1.216709614830    28.78287456   326.32128575
 C      9   6   4     1.322844427285   172.56218635   307.97140970
 C      9   6   4     1.338557546091    57.88126052   253.14317185
 C     10   9   6     1.316809100051    57.96201197   174.90889024
 C     10   9   6     1.346738881322    59.23214087   358.71981120
 C      6   4   3     1.228812383033   124.79580599   249.56327363
 C     12  10   9     1.298767707198   147.95635068     5.15212491
 H     14   7   2     1.099984019264   108.07863455   339.92310175
 H     15  14   7     1.092679331496   107.83949130   183.56435957
 H     15  14   7     1.093020943936   108.57857830   300.83482332
 H     16  15  14     1.092125362417   108.58356686   165.03747541
 H     16  15  14     1.091277584554   110.98359989    44.83030010
 H      7   2   1     1.010040880261   147.95441989   227.99074060
 H     21   8   6     1.092017271557   109.53602120   287.25824007
 H     21   8   6     1.092088174425   107.51610653   168.36823251
 H     22  18  17     1.084135985796   120.94557437   358.73177732
 H     23  18  17     1.084754153776   118.71790938     1.81395167
 H      8   6   4     1.016309351756   129.91265619   257.91438705
 H     24  22  18     1.082391537959   119.28497687   181.15280413
 H     25  23  18     1.085025608560   120.23354374   178.35418615
 H     29  10   9     1.086524174056   116.93279540   178.55941661
 H      1   2   3     0.971525223278   144.19766143    36.77321107
 H     11   6   4     1.022117817821    88.20731607   340.33050685
 H      4   3   1     1.019690599412   134.00434611   148.66195441
 H     13  12  32     1.005908384656   144.44676465    30.87455110
 H     13  12  32     1.005898001278    86.64708292   166.00714295

---------------------------
INTERNAL COORDINATES (A.U.)
---------------------------
 O      0   0   0     0.000000000000     0.00000000     0.00000000
 O      1   0   0     9.157839905007     0.00000000     0.00000000
 O      1   2   0     4.212182755375    68.25164038     0.00000000
 O      3   1   2     7.295889467702   103.56105589   292.41958796
 O      4   3   1     4.220701944795   121.75829458    29.51312416
 O      4   3   1     4.877582058335   128.88677680   145.62732586
 N      2   1   3     4.256287390343    44.29131299    34.73467408
 N      6   4   3    10.122223283381   123.40334622   341.82434951
 N      6   4   3     5.330876664295   148.76047209   332.79304631
 N      9   6   4     5.268300034422   116.72750294   256.55454686
 N      6   4   3     4.270657739346    97.16933222   233.10729457
 N     10   9   6     4.379395500029    90.49789647     0.85253515
 N     12  10   9     4.340518193700   176.13680833    72.21049717
 C      7   2   1     2.732596974370    91.69836437    18.00181667
 C     14   7   2     2.906616604878   112.94079928    98.87752370
 C     15  14   7     2.905717438554   113.40974511    62.62226435
 C      2   1   3     2.306229442975    73.06980788    20.11445294
 C     17   2   1     2.807317178564   122.29927474   197.84809874
 C      3   1   2     2.267743205360    30.26374275   340.34956432
 C      8   6   4     2.645032664666    48.86093418   340.72641718
 C      8   6   4     2.783691328564    68.43764280   159.30600906
 C     18  17   2     2.639503139482   124.75911958   183.14138701
 C     18  17   2     2.645270418737   116.77529781     2.30230456
 C     22  18  17     2.613853331582   120.76146661   177.06763396
 C     23  18  17     2.608236681976   121.05936213   183.38939080
 C      5   4   3     2.299247956538    28.78287456   326.32128575
 C      9   6   4     2.499813685352   172.56218635   307.97140970
 C      9   6   4     2.529507176606    57.88126052   253.14317185
 C     10   9   6     2.488408569751    57.96201197   174.90889024
 C     10   9   6     2.544967659602    59.23214087   358.71981120
 C      6   4   3     2.322118873903   124.79580599   249.56327363
 C     12  10   9     2.454315278185   147.95635068     5.15212491
 H     14   7   2     2.078668548099   108.07863455   339.92310175
 H     15  14   7     2.064864688724   107.83949130   183.56435957
 H     15  14   7     2.065510242680   108.57857830   300.83482332
 H     16  15  14     2.063817838877   108.58356686   165.03747541
 H     16  15  14     2.062215770895   110.98359989    44.83030010
 H      7   2   1     1.908700647758   147.95441989   227.99074060
 H     21   8   6     2.063613576754   109.53602120   287.25824007
 H     21   8   6     2.063747563758   107.51610653   168.36823251
 H     22  18  17     2.048720105083   120.94557437   358.73177732
 H     23  18  17     2.049888273270   118.71790938     1.81395167
 H      8   6   4     1.920546342162   129.91265619   257.91438705
 H     24  22  18     2.045423576417   119.28497687   181.15280413
 H     25  23  18     2.050401248469   120.23354374   178.35418615
 H     29  10   9     2.053233126852   116.93279540   178.55941661
 H      1   2   3     1.835916604192   144.19766143    36.77321107
 H     11   6   4     1.931522752283    88.20731607   340.33050685
 H      4   3   1     1.926935974223   134.00434611   148.66195441
 H     13  12  32     1.900891362815   144.44676465    30.87455110
 H     13  12  32     1.900871741074    86.64708292   166.00714295

---------------------
BASIS SET INFORMATION
---------------------
There are 4 groups of distinct atoms

 Group   1 Type O   : 11s6p2d contracted to 5s3p2d pattern {62111/411/11}
 Group   2 Type N   : 11s6p1d contracted to 5s3p1d pattern {62111/411/1}
 Group   3 Type C   : 11s6p1d contracted to 5s3p1d pattern {62111/411/1}
 Group   4 Type H   : 5s contracted to 3s pattern {311}

Atom   0O    basis set group =>   1
Atom   1O    basis set group =>   1
Atom   2O    basis set group =>   1
Atom   3O    basis set group =>   1
Atom   4O    basis set group =>   1
Atom   5O    basis set group =>   1
Atom   6N    basis set group =>   2
Atom   7N    basis set group =>   2
Atom   8N    basis set group =>   2
Atom   9N    basis set group =>   2
Atom  10N    basis set group =>   2
Atom  11N    basis set group =>   2
Atom  12N    basis set group =>   2
Atom  13C    basis set group =>   3
Atom  14C    basis set group =>   3
Atom  15C    basis set group =>   3
Atom  16C    basis set group =>   3
Atom  17C    basis set group =>   3
Atom  18C    basis set group =>   3
Atom  19C    basis set group =>   3
Atom  20C    basis set group =>   3
Atom  21C    basis set group =>   3
Atom  22C    basis set group =>   3
Atom  23C    basis set group =>   3
Atom  24C    basis set group =>   3
Atom  25C    basis set group =>   3
Atom  26C    basis set group =>   3
Atom  27C    basis set group =>   3
Atom  28C    basis set group =>   3
Atom  29C    basis set group =>   3
Atom  30C    basis set group =>   3
Atom  31C    basis set group =>   3
Atom  32H    basis set group =>   4
Atom  33H    basis set group =>   4
Atom  34H    basis set group =>   4
Atom  35H    basis set group =>   4
Atom  36H    basis set group =>   4
Atom  37H    basis set group =>   4
Atom  38H    basis set group =>   4
Atom  39H    basis set group =>   4
Atom  40H    basis set group =>   4
Atom  41H    basis set group =>   4
Atom  42H    basis set group =>   4
Atom  43H    basis set group =>   4
Atom  44H    basis set group =>   4
Atom  45H    basis set group =>   4
Atom  46H    basis set group =>   4
Atom  47H    basis set group =>   4
Atom  48H    basis set group =>   4
Atom  49H    basis set group =>   4
Atom  50H    basis set group =>   4
---------------------------------
AUXILIARY/J BASIS SET INFORMATION
---------------------------------
There are 4 groups of distinct atoms

 Group   1 Type O   : 8s3p3d contracted to 6s3p3d pattern {311111/111/111}
 Group   2 Type N   : 8s3p3d contracted to 6s3p3d pattern {311111/111/111}
 Group   3 Type C   : 8s3p3d contracted to 6s3p3d pattern {311111/111/111}
 Group   4 Type H   : 5s2p contracted to 3s1p pattern {311/2}

Atom   0O    basis set group =>   1
Atom   1O    basis set group =>   1
Atom   2O    basis set group =>   1
Atom   3O    basis set group =>   1
Atom   4O    basis set group =>   1
Atom   5O    basis set group =>   1
Atom   6N    basis set group =>   2
Atom   7N    basis set group =>   2
Atom   8N    basis set group =>   2
Atom   9N    basis set group =>   2
Atom  10N    basis set group =>   2
Atom  11N    basis set group =>   2
Atom  12N    basis set group =>   2
Atom  13C    basis set group =>   3
Atom  14C    basis set group =>   3
Atom  15C    basis set group =>   3
Atom  16C    basis set group =>   3
Atom  17C    basis set group =>   3
Atom  18C    basis set group =>   3
Atom  19C    basis set group =>   3
Atom  20C    basis set group =>   3
Atom  21C    basis set group =>   3
Atom  22C    basis set group =>   3
Atom  23C    basis set group =>   3
Atom  24C    basis set group =>   3
Atom  25C    basis set group =>   3
Atom  26C    basis set group =>   3
Atom  27C    basis set group =>   3
Atom  28C    basis set group =>   3
Atom  29C    basis set group =>   3
Atom  30C    basis set group =>   3
Atom  31C    basis set group =>   3
Atom  32H    basis set group =>   4
Atom  33H    basis set group =>   4
Atom  34H    basis set group =>   4
Atom  35H    basis set group =>   4
Atom  36H    basis set group =>   4
Atom  37H    basis set group =>   4
Atom  38H    basis set group =>   4
Atom  39H    basis set group =>   4
Atom  40H    basis set group =>   4
Atom  41H    basis set group =>   4
Atom  42H    basis set group =>   4
Atom  43H    basis set group =>   4
Atom  44H    basis set group =>   4
Atom  45H    basis set group =>   4
Atom  46H    basis set group =>   4
Atom  47H    basis set group =>   4
Atom  48H    basis set group =>   4
Atom  49H    basis set group =>   4
Atom  50H    basis set group =>   4


           ************************************************************
           *        Program running with 16 parallel MPI-processes    *
           *              working on a common directory               *
           ************************************************************
------------------------------------------------------------------------------
                             ORCA STARTUP CALCULATIONS
                           -- RI-GTO INTEGRALS CHOSEN --
------------------------------------------------------------------------------
------------------------------------------------------------------------------
                   ___                                                        
                  /   \      - P O W E R E D   B Y -                         
                 /     \                                                     
                 |  |  |   _    _      __       _____    __    __             
                 |  |  |  | |  | |    /  \     |  _  \  |  |  /  |          
                  \  \/   | |  | |   /    \    | | | |  |  | /  /          
                 / \  \   | |__| |  /  /\  \   | |_| |  |  |/  /          
                |  |  |   |  __  | /  /__\  \  |    /   |      \           
                |  |  |   | |  | | |   __   |  |    \   |  |\   \          
                \     /   | |  | | |  |  |  |  | |\  \  |  | \   \       
                 \___/    |_|  |_| |__|  |__|  |_| \__\ |__|  \__/        
                                                                              
                      - O R C A' S   B I G   F R I E N D -                    
                                      &                                       
                       - I N T E G R A L  F E E D E R -                       
                                                                              
 v1 FN, 2020, v2 2021, v3 2022-2024                                           
------------------------------------------------------------------------------


----------------------
SHARK INTEGRAL PACKAGE
----------------------

Number of atoms                             ...     51
Number of basis functions                   ...    695
Number of shells                            ...    351
Maximum angular momentum                    ...      2
Integral batch strategy                     ... SHARK/LIBINT Hybrid
RI-J (if used) integral strategy            ... SPLIT-RIJ (Revised 2003 algorithm where possible)
Printlevel                                  ...      1
Contraction scheme used                     ... SEGMENTED contraction
Prescreening option                         ... SCHWARTZ
   Thresh                                   ... 2.500e-11
   Tcut                                     ... 2.500e-12
   Tpresel                                  ... 2.500e-12 
Coulomb Range Separation                    ... NOT USED
Exchange Range Separation                   ... NOT USED
Multipole approximations                    ... NOT USED
Finite Nucleus Model                        ... NOT USED
CABS basis                                  ... NOT available
Auxiliary Coulomb fitting basis             ... AVAILABLE
   # of basis functions in Aux-J            ...   1074
   # of shells in Aux-J                     ...    460
   Maximum angular momentum in Aux-J        ...      2
Auxiliary J/K fitting basis                 ... NOT available
Auxiliary Correlation fitting basis         ... NOT available
Auxiliary 'external' fitting basis          ... NOT available

Checking pre-screening integrals            ... done (  0.0 sec) Dimension = 351
Check shell pair data                       ... done (  0.0 sec)
Shell pair information
Shell pair cut-off parameter TPreSel        ...   2.5e-12
Total number of shell pairs                 ...     61776
Shell pairs after pre-screening             ...     41693
Total number of primitive shell pairs       ...    230264
Primitive shell pairs kept                  ...     93448
          la=0 lb=0:  14607 shell pairs
          la=1 lb=0:  15080 shell pairs
          la=1 lb=1:   3801 shell pairs
          la=2 lb=0:   5059 shell pairs
          la=2 lb=1:   2682 shell pairs
          la=2 lb=2:    464 shell pairs

Calculating one electron integrals          ... done (  0.0 sec)
Calculating RI/J V-Matrix + Cholesky decomp.... done (  0.0 sec)
Calculating Nuclear repulsion               ... done (  0.0 sec) ENN=   3411.128838591158 Eh

Diagonalization of the overlap matrix:
Smallest eigenvalue                        ... 7.123e-06
Time for diagonalization                   ...    0.053 sec
Threshold for overlap eigenvalues          ... 1.000e-07
Number of eigenvalues below threshold      ... 0
Time for construction of square roots      ...    0.034 sec
Total time needed                          ...    0.096 sec

-------------------
DFT GRID GENERATION
-------------------

General Integration Accuracy     IntAcc      ... 4.959
Radial Grid Type                 RadialGrid  ... OptM3 with GC (2021)
Angular Grid (max. ang.)         AngularGrid ... 6 (Lebedev-590)
Angular grid pruning method      GridPruning ... 4 (adaptive)
Weight generation scheme         WeightScheme... mBecke (2022)
Basis function cutoff            BFCut       ... 1.0000e-11
Integration weight cutoff        WCut        ... 1.0000e-14
Partially contracted basis set               ... off
Rotationally invariant grid construction     ... off
Angular grids for H and He will be reduced by one unit
Diffuse basis detected: some atoms will have their outermost
                        angular grid increased by 1.

Total number of grid points                  ...   615469
Total number of batches                      ...     9643
Average number of points per batch           ...       63
Average number of grid points per atom       ...    12068
Initializing property integral containers    ... done (  0.0 sec)

SHARK setup successfully completed in   5.7 seconds

Maximum memory used throughout the entire STARTUP-calculation: 156.4 MB


           ************************************************************
           *        Program running with 16 parallel MPI-processes    *
           *              working on a common directory               *
           ************************************************************
-------------------------------------------------------------------------------
                                 ORCA GUESS
                   Start orbitals & Density for SCF / CASSCF
-------------------------------------------------------------------------------

------------
SCF SETTINGS
------------
Hamiltonian:
 Density Functional     Method          .... DFT(GTOs)
 Exchange Functional    Exchange        .... B973C
 Correlation Functional Correlation     .... B973C
 Gradients option       PostSCFGGA      .... off
 RI-approximation to the Coulomb term is turned on
   Number of AuxJ basis functions       .... 1074


General Settings:
 Integral files         IntName         .... m1_00_Vitamin_B9-GFN1_00006-B97-3C-TZ
 Hartree-Fock type      HFTyp           .... RHF
 Total Charge           Charge          ....    0
 Multiplicity           Mult            ....    1
 Number of Electrons    NEL             ....  230
 Basis Dimension        Dim             ....  695
 Nuclear Repulsion      ENuc            ....   3411.1288385912 Eh

Convergence Acceleration:
 AO-DIIS                CNVDIIS         .... on
   Start iteration      DIISMaxIt       ....    12
   Startup error        DIISStart       ....  0.200000
   # of expansion vecs  DIISMaxEq       ....     5
   Bias factor          DIISBfac        ....   1.050
   Max. coefficient     DIISMaxC        ....  10.000
 MO-DIIS                CNVKDIIS        .... off
 Trust-Rad. Augm. Hess. CNVTRAH         .... off
 SOSCF                  CNVSOSCF        .... on
   Start iteration      SOSCFMaxIt      ....   150
   Startup grad/error   SOSCFStart      ....  0.003300
   Hessian update       SOSCFHessUp     .... L-BFGS
 Level Shifting         CNVShift        .... on
   Level shift para.    LevelShift      ....    0.2500
   Turn off err/grad.   ShiftErr        ....    0.0010
 Zerner damping         CNVZerner       .... off
 Static damping         CNVDamp         .... on
   Fraction old density DampFac         ....    0.7000
   Max. Damping (<1)    DampMax         ....    0.9800
   Min. Damping (>=0)   DampMin         ....    0.0000
   Turn off err/grad.   DampErr         ....    0.1000

SCF Procedure:
 Maximum # iterations   MaxIter         ....   800
 SCF integral mode      SCFMode         .... Direct
   Integral package                     .... SHARK and LIBINT hybrid scheme
 Reset frequency        DirectResetFreq ....    20
 Integral Threshold     Thresh          ....  2.500e-11 Eh
 Primitive CutOff       TCut            ....  2.500e-12 Eh

Convergence Tolerance:
 Convergence Check Mode ConvCheckMode   .... Total+1el-Energy
 Convergence forced     ConvForced      .... 0
 Energy Change          TolE            ....  1.000e-08 Eh
 1-El. energy change                    ....  1.000e-05 Eh
 Orbital Gradient       TolG            ....  1.000e-05
 Orbital Rotation angle TolX            ....  1.000e-05
 DIIS Error             TolErr          ....  5.000e-07

--------------------------------
INITIAL GUESS: MINIMAL BASIS EHT
--------------------------------
The minimal basis has 179 functions
EHT matrix was diagonalized
Basis set overlap was calculated now projecting the orbitals
Using GuessMode=FMatrix for the initial guess
C*T matrix was formed
Effective Fockian was calculated
Effective Fockian was diagonalized
Initial density was built
                      ------------------
                      INITIAL GUESS DONE
                      ------------------
             **** ENERGY FILE WAS UPDATED (m1_00_Vitamin_B9-GFN1_00006-B97-3C-TZ.en.tmp) ****
Finished Guess after   0.6 sec
Maximum memory used throughout the entire GUESS-calculation: 73.6 MB


           ************************************************************
           *        Program running with 16 parallel MPI-processes    *
           *              working on a common directory               *
           ************************************************************

-------------------------------------------------------------------------------------------
                                      ORCA LEAN-SCF
                              memory conserving SCF solver
-------------------------------------------------------------------------------------------

----------------------------------------D-I-I-S--------------------------------------------
Iteration    Energy (Eh)           Delta-E    RMSDP     MaxDP     DIISErr   Damp  Time(sec)
-------------------------------------------------------------------------------------------
               ***  Starting incremental Fock matrix formation  ***
    1    -1563.3708346039966273     0.00e+00  6.88e-03  7.16e-01  4.67e-01  0.700   1.9
Warning: op=0 Small HOMO/LUMO gap (  -0.465) - skipping pre-diagonalization
         LevelShift set to 0.565 Eh
         Will do a full diagonalization
    2    -1565.4083999336444322    -2.04e+00  4.96e-03  4.57e-01  3.35e-01  0.700   2.1
    3    -1566.2358520291572859    -8.27e-01  2.91e-03  2.51e-01  2.45e-01  0.700   1.9
                               ***Turning on AO-DIIS***
    4    -1567.1155710522798472    -8.80e-01  1.89e-03  1.38e-01  1.72e-01  0.700   1.9
    5    -1567.7336467274208189    -6.18e-01  1.58e-03  1.41e-01  1.17e-01  0.700   1.9
    6    -1568.1535672458567205    -4.20e-01  1.21e-03  9.83e-02  7.96e-02  0.700   1.9
    7    -1568.4476808283006903    -2.94e-01  3.09e-03  1.64e-01  5.50e-02  0.000   1.9
    8    -1569.1328878721815272    -6.85e-01  5.21e-04  3.59e-02  4.11e-02  0.000   1.9
    9    -1569.1411418200732442    -8.25e-03  3.06e-04  2.49e-02  1.26e-02  0.000   1.9
   10    -1569.1436380888744679    -2.50e-03  2.01e-04  1.68e-02  7.05e-03  0.000   1.8
   11    -1569.1451338167889844    -1.50e-03  1.56e-04  1.36e-02  5.75e-03  0.000   1.8
   12    -1569.1460417292646525    -9.08e-04  1.14e-04  1.01e-02  4.74e-03  0.000   1.8
   13    -1569.1466689060544013    -6.27e-04  9.21e-05  8.11e-03  3.89e-03  0.000   1.8
                              *** Initializing SOSCF ***
---------------------------------------S-O-S-C-F--------------------------------------
Iteration    Energy (Eh)           Delta-E    RMSDP     MaxDP     MaxGrad    Time(sec)
--------------------------------------------------------------------------------------
   14    -1569.1470695594180143    -4.01e-04  7.40e-05  6.08e-03  3.20e-03     1.9
               *** Restarting incremental Fock matrix formation ***
   15    -1569.1473448902906966    -2.75e-04  3.00e-04  2.27e-02  4.45e-03     2.0
   16    -1569.1478444091299025    -5.00e-04  2.62e-04  2.95e-02  9.79e-04     1.7
   17    -1569.1475789605519822     2.65e-04  1.56e-04  1.17e-02  2.31e-03     1.7
   18    -1569.1479173490715766    -3.38e-04  6.28e-05  6.01e-03  2.60e-04     1.7
   19    -1569.1479040475642250     1.33e-05  3.40e-05  2.95e-03  4.65e-04     1.7
   20    -1569.1479229820452019    -1.89e-05  2.62e-05  1.81e-03  8.43e-05     1.7
   21    -1569.1479205701398314     2.41e-06  1.37e-05  7.50e-04  1.52e-04     1.7
   22    -1569.1479238479905689    -3.28e-06  1.37e-05  9.83e-04  4.36e-05     1.7
   23    -1569.1479234700536836     3.78e-07  9.37e-06  9.06e-04  8.96e-05     1.7
   24    -1569.1479239284954019    -4.58e-07  1.94e-05  1.93e-03  5.37e-06     1.7
   25    -1569.1479239212540051     7.24e-09  4.05e-06  4.56e-04  1.11e-05     1.6
                 **** Energy Check signals convergence ****

               *****************************************************
               *                     SUCCESS                       *
               *           SCF CONVERGED AFTER  25 CYCLES          *
               *****************************************************

             **** ENERGY FILE WAS UPDATED (m1_00_Vitamin_B9-GFN1_00006-B97-3C-TZ.en.tmp) ****

----------------
TOTAL SCF ENERGY
----------------

Total Energy       :      -1569.14792392125401 Eh          -42698.68577 eV

Components:
Nuclear Repulsion  :       3411.12883859115846 Eh           92821.53465 eV
Electronic Energy  :      -4980.27676251241246 Eh         -135520.22042 eV
One Electron Energy:      -8929.00727626821936 Eh         -242970.64038 eV
Two Electron Energy:       3948.73051375580735 Eh          107450.41995 eV

Virial components:
Potential Energy   :      -3132.87623984417860 Eh          -85249.89651 eV
Kinetic Energy     :       1563.72831592292459 Eh           42551.21074 eV
Virial Ratio       :          2.00346582455734

DFT components:
N(Alpha)           :      115.000022509732 electrons
N(Beta)            :      115.000022509732 electrons
N(Total)           :      230.000045019464 electrons
E(XC)              :     -209.163834209553 Eh       

---------------
SCF CONVERGENCE
---------------

  Last Energy change         ...   -7.2414e-09  Tolerance :   1.0000e-08
  Last MAX-Density change    ...    4.5602e-04  Tolerance :   1.0000e-07
  Last RMS-Density change    ...    4.0540e-06  Tolerance :   5.0000e-09
  Last DIIS Error            ...    3.2047e-03  Tolerance :   5.0000e-07
  Last Orbital Gradient      ...    1.1128e-05  Tolerance :   1.0000e-05
  Last Orbital Rotation      ...    2.4574e-05  Tolerance :   1.0000e-05


----------------
ORBITAL ENERGIES
----------------

  NO   OCC          E(Eh)            E(eV) 
   0   2.0000     -18.810042      -511.8473 
   1   2.0000     -18.781497      -511.0705 
   2   2.0000     -18.747683      -510.1504 
   3   2.0000     -18.746340      -510.1139 
   4   2.0000     -18.741931      -509.9939 
   5   2.0000     -18.700183      -508.8578 
   6   2.0000     -14.054623      -382.4457 
   7   2.0000     -14.034539      -381.8992 
   8   2.0000     -14.017010      -381.4222 
   9   2.0000     -14.008018      -381.1776 
  10   2.0000     -14.007006      -381.1500 
  11   2.0000     -14.002954      -381.0397 
  12   2.0000     -13.985700      -380.5702 
  13   2.0000     -10.030778      -272.9513 
  14   2.0000     -10.025618      -272.8109 
  15   2.0000     -10.024537      -272.7815 
  16   2.0000     -10.019071      -272.6328 
  17   2.0000      -9.978764      -271.5360 
  18   2.0000      -9.977115      -271.4911 
  19   2.0000      -9.950920      -270.7783 
  20   2.0000      -9.950651      -270.7710 
  21   2.0000      -9.946644      -270.6619 
  22   2.0000      -9.944958      -270.6161 
  23   2.0000      -9.944293      -270.5980 
  24   2.0000      -9.936074      -270.3743 
  25   2.0000      -9.913764      -269.7672 
  26   2.0000      -9.912833      -269.7419 
  27   2.0000      -9.899294      -269.3735 
  28   2.0000      -9.895886      -269.2808 
  29   2.0000      -9.894115      -269.2326 
  30   2.0000      -9.893273      -269.2096 
  31   2.0000      -9.892945      -269.2007 
  32   2.0000      -1.046854       -28.4864 
  33   2.0000      -1.029846       -28.0235 
  34   2.0000      -0.998936       -27.1824 
  35   2.0000      -0.960047       -26.1242 
  36   2.0000      -0.954427       -25.9713 
  37   2.0000      -0.952698       -25.9242 
  38   2.0000      -0.941956       -25.6319 
  39   2.0000      -0.923005       -25.1162 
  40   2.0000      -0.880865       -23.9696 
  41   2.0000      -0.860599       -23.4181 
  42   2.0000      -0.856317       -23.3016 
  43   2.0000      -0.853557       -23.2265 
  44   2.0000      -0.830924       -22.6106 
  45   2.0000      -0.783206       -21.3121 
  46   2.0000      -0.747755       -20.3475 
  47   2.0000      -0.734714       -19.9926 
  48   2.0000      -0.699388       -19.0313 
  49   2.0000      -0.685592       -18.6559 
  50   2.0000      -0.681088       -18.5333 
  51   2.0000      -0.658042       -17.9062 
  52   2.0000      -0.650752       -17.7079 
  53   2.0000      -0.619198       -16.8492 
  54   2.0000      -0.613589       -16.6966 
  55   2.0000      -0.595146       -16.1947 
  56   2.0000      -0.586084       -15.9481 
  57   2.0000      -0.569890       -15.5075 
  58   2.0000      -0.558874       -15.2077 
  59   2.0000      -0.552911       -15.0455 
  60   2.0000      -0.541816       -14.7436 
  61   2.0000      -0.533738       -14.5238 
  62   2.0000      -0.530175       -14.4268 
  63   2.0000      -0.511163       -13.9095 
  64   2.0000      -0.497247       -13.5308 
  65   2.0000      -0.491462       -13.3733 
  66   2.0000      -0.482196       -13.1212 
  67   2.0000      -0.474074       -12.9002 
  68   2.0000      -0.469703       -12.7813 
  69   2.0000      -0.462676       -12.5900 
  70   2.0000      -0.452905       -12.3242 
  71   2.0000      -0.449537       -12.2325 
  72   2.0000      -0.445277       -12.1166 
  73   2.0000      -0.441376       -12.0105 
  74   2.0000      -0.434937       -11.8352 
  75   2.0000      -0.427257       -11.6263 
  76   2.0000      -0.426085       -11.5943 
  77   2.0000      -0.418949       -11.4002 
  78   2.0000      -0.417045       -11.3484 
  79   2.0000      -0.408446       -11.1144 
  80   2.0000      -0.404599       -11.0097 
  81   2.0000      -0.393173       -10.6988 
  82   2.0000      -0.392181       -10.6718 
  83   2.0000      -0.386830       -10.5262 
  84   2.0000      -0.379634       -10.3304 
  85   2.0000      -0.377713       -10.2781 
  86   2.0000      -0.374585       -10.1930 
  87   2.0000      -0.372368       -10.1326 
  88   2.0000      -0.366732        -9.9793 
  89   2.0000      -0.363799        -9.8995 
  90   2.0000      -0.359170        -9.7735 
  91   2.0000      -0.355358        -9.6698 
  92   2.0000      -0.340772        -9.2729 
  93   2.0000      -0.333901        -9.0859 
  94   2.0000      -0.330558        -8.9949 
  95   2.0000      -0.323768        -8.8102 
  96   2.0000      -0.319684        -8.6990 
  97   2.0000      -0.307172        -8.3586 
  98   2.0000      -0.303074        -8.2471 
  99   2.0000      -0.299139        -8.1400 
 100   2.0000      -0.287865        -7.8332 
 101   2.0000      -0.286240        -7.7890 
 102   2.0000      -0.276599        -7.5266 
 103   2.0000      -0.270807        -7.3690 
 104   2.0000      -0.267511        -7.2794 
 105   2.0000      -0.262748        -7.1497 
 106   2.0000      -0.251331        -6.8391 
 107   2.0000      -0.249721        -6.7953 
 108   2.0000      -0.245361        -6.6766 
 109   2.0000      -0.230079        -6.2608 
 110   2.0000      -0.221958        -6.0398 
 111   2.0000      -0.217916        -5.9298 
 112   2.0000      -0.211589        -5.7576 
 113   2.0000      -0.209046        -5.6884 
 114   2.0000      -0.184011        -5.0072 
 115   0.0000      -0.108240        -2.9454 
 116   0.0000      -0.071842        -1.9549 
 117   0.0000      -0.055854        -1.5199 
 118   0.0000      -0.042317        -1.1515 
 119   0.0000      -0.039203        -1.0668 
 120   0.0000      -0.032877        -0.8946 
 121   0.0000      -0.024327        -0.6620 
 122   0.0000       0.003720         0.1012 
 123   0.0000       0.008394         0.2284 
 124   0.0000       0.011651         0.3170 
 125   0.0000       0.015998         0.4353 
*Only the first 10 virtual orbitals were printed.

                    ********************************
                    * MULLIKEN POPULATION ANALYSIS *
                    ********************************

-----------------------
MULLIKEN ATOMIC CHARGES
-----------------------
   0 O :   -0.500048
   1 O :   -0.464419
   2 O :   -0.381559
   3 O :   -0.482902
   4 O :   -0.522768
   5 O :   -0.503786
   6 N :   -0.416219
   7 N :   -0.312394
   8 N :   -0.062416
   9 N :   -0.047748
  10 N :   -0.376745
  11 N :   -0.163415
  12 N :   -0.641121
  13 C :   -0.006996
  14 C :   -0.291923
  15 C :   -0.271014
  16 C :    0.092354
  17 C :    0.057270
  18 C :    0.277544
  19 C :   -0.003412
  20 C :   -0.529274
  21 C :    0.005655
  22 C :   -0.203769
  23 C :   -0.101161
  24 C :   -0.123768
  25 C :    0.445057
  26 C :    0.219760
  27 C :    0.088025
  28 C :   -0.163535
  29 C :   -0.103663
  30 C :    0.266686
  31 C :    0.382040
  32 H :    0.218985
  33 H :    0.185298
  34 H :    0.200435
  35 H :    0.203597
  36 H :    0.170897
  37 H :    0.366191
  38 H :    0.220226
  39 H :    0.205196
  40 H :    0.143827
  41 H :    0.200695
  42 H :    0.306636
  43 H :    0.164772
  44 H :    0.168438
  45 H :    0.162396
  46 H :    0.441315
  47 H :    0.378613
  48 H :    0.392520
  49 H :    0.351243
  50 H :    0.358385
Sum of atomic charges:   -0.0000000

--------------------------------
MULLIKEN REDUCED ORBITAL CHARGES
--------------------------------
  0 O s       :     3.774193  s :     3.774193
      pz      :     1.730850  p :     4.686448
      px      :     1.687144
      py      :     1.268454
      dz2     :     0.006877  d :     0.039406
      dxz     :     0.007395
      dyz     :     0.006835
      dx2y2   :     0.002039
      dxy     :     0.016261

  1 O s       :     3.848355  s :     3.848355
      pz      :     1.324329  p :     4.578435
      px      :     1.503213
      py      :     1.750893
      dz2     :     0.013986  d :     0.037630
      dxz     :     0.008637
      dyz     :     0.003811
      dx2y2   :     0.006247
      dxy     :     0.004949

  2 O s       :     3.843997  s :     3.843997
      pz      :     1.383496  p :     4.502083
      px      :     1.346450
      py      :     1.772138
      dz2     :     0.006947  d :     0.035479
      dxz     :     0.012106
      dyz     :     0.003141
      dx2y2   :     0.007440
      dxy     :     0.005845

  3 O s       :     3.759511  s :     3.759511
      pz      :     1.582468  p :     4.695936
      px      :     1.511498
      py      :     1.601969
      dz2     :     0.001467  d :     0.027455
      dxz     :     0.008130
      dyz     :     0.001488
      dx2y2   :     0.007188
      dxy     :     0.009183

  4 O s       :     3.832305  s :     3.832305
      pz      :     1.611271  p :     4.651524
      px      :     1.514795
      py      :     1.525458
      dz2     :     0.008538  d :     0.038939
      dxz     :     0.003340
      dyz     :     0.003808
      dx2y2   :     0.010354
      dxy     :     0.012899

  5 O s       :     3.845862  s :     3.845862
      pz      :     1.509108  p :     4.624058
      px      :     1.692395
      py      :     1.422555
      dz2     :     0.003859  d :     0.033866
      dxz     :     0.007691
      dyz     :     0.006874
      dx2y2   :     0.004778
      dxy     :     0.010664

  6 N s       :     3.350923  s :     3.350923
      pz      :     1.287833  p :     4.025248
      px      :     1.514453
      py      :     1.222962
      dz2     :     0.007153  d :     0.040048
      dxz     :     0.008141
      dyz     :     0.011075
      dx2y2   :     0.007217
      dxy     :     0.006461

  7 N s       :     3.404779  s :     3.404779
      pz      :     1.054264  p :     3.863836
      px      :     1.692426
      py      :     1.117146
      dz2     :     0.007158  d :     0.043779
      dxz     :     0.007357
      dyz     :     0.015577
      dx2y2   :     0.006371
      dxy     :     0.007315

  8 N s       :     3.493368  s :     3.493368
[...]
114:   1434.30   0.000680    3.43  0.000148  ( 0.004442  0.003666  0.010710)
115:   1472.92   0.001356    6.85  0.000287  (-0.005141  0.014462 -0.007192)
116:   1488.05   0.000646    3.27  0.000136  ( 0.000348 -0.004501  0.010732)
117:   1491.02   0.004988   25.21  0.001044  ( 0.010864  0.030318  0.002590)
118:   1495.95   0.017535   88.61  0.003658  ( 0.056360  0.009880  0.019591)
119:   1497.88   0.005215   26.36  0.001087  ( 0.019304 -0.026042  0.005978)
120:   1503.22   0.000445    2.25  0.000092  ( 0.006794 -0.000760  0.006764)
121:   1508.87   0.005026   25.40  0.001040  ( 0.013849 -0.028650  0.005189)
122:   1519.33   0.066596  336.55  0.013679  ( 0.033482  0.108316  0.028727)
123:   1542.72   0.013726   69.37  0.002776  ( 0.002149  0.052514 -0.003759)
124:   1546.91   0.018756   94.79  0.003784  (-0.014543 -0.059419 -0.006452)
125:   1573.59   0.026242  132.62  0.005204  (-0.054074 -0.042344 -0.022069)
126:   1605.46   0.000610    3.08  0.000119  ( 0.001382 -0.010703 -0.001436)
127:   1630.14   0.012901   65.20  0.002470  (-0.024310 -0.032887  0.028234)
128:   1639.86   0.053470  270.22  0.010175  ( 0.062923  0.077098  0.016487)
129:   1671.85   0.001265    6.39  0.000236  ( 0.000533  0.005408  0.014372)
130:   1688.45   0.073880  373.36  0.013655  (-0.096734 -0.037557 -0.053728)
131:   1694.63   0.020525  103.72  0.003780  ( 0.015037 -0.014877  0.057725)
132:   1720.55   0.129796  655.93  0.023542  ( 0.073897 -0.117266  0.065800)
133:   1775.68   0.035178  177.77  0.006182  (-0.070422 -0.008713 -0.033869)
134:   2890.29   0.241236  1219.11  0.026046  (-0.021661 -0.156793 -0.031511)
135:   3008.40   0.003132   15.83  0.000325  (-0.001812  0.013380  0.011939)
136:   3019.32   0.002171   10.97  0.000224  (-0.003036 -0.009938  0.010790)
137:   3045.64   0.010895   55.06  0.001116  (-0.023305 -0.016237 -0.017595)
138:   3049.16   0.006436   32.52  0.000659  (-0.011727 -0.019905 -0.011177)
139:   3071.72   0.011102   56.10  0.001128  ( 0.018605  0.027626  0.004299)
140:   3075.34   0.002038   10.30  0.000207  (-0.012710  0.006687 -0.000703)
141:   3098.59   0.002557   12.92  0.000258  (-0.002805  0.015785  0.000702)
142:   3100.72   0.001740    8.79  0.000175  ( 0.000065 -0.011431  0.006669)
143:   3122.52   0.001871    9.46  0.000187  ( 0.003927  0.012380 -0.004281)
144:   3140.93   0.218678  1105.11  0.021727  ( 0.030973  0.143766  0.009928)
145:   3141.89   0.036102  182.45  0.003586  (-0.012347 -0.058502 -0.003294)
146:   3161.56   0.000971    4.91  0.000096  ( 0.000109 -0.007249  0.006577)
147:   3168.00   0.001400    7.08  0.000138  (-0.008914 -0.001987 -0.007385)
148:   3491.48   0.000866    4.38  0.000077  (-0.005788 -0.006127  0.002524)
149:   3520.06   0.013518   68.31  0.001198  ( 0.016170  0.019097  0.023921)
150:   3536.62   0.012861   65.00  0.001135  (-0.018162  0.028346  0.001208)
151:   3630.03   0.009103   46.00  0.000783  ( 0.008163 -0.025018  0.009486)
152:   3676.33   0.012244   61.88  0.001039  (-0.012585  0.028663  0.007706)

* The epsilon (eps) is given for a Dirac delta lineshape.
** The dipole moment derivative (T) already includes vibrational overlap.

The first frequency considered to be a vibration is 6
The total number of vibrations considered is 147


--------------------------
THERMOCHEMISTRY AT 298.15K
--------------------------

Temperature         ...   298.15 K
Pressure            ...     1.00 atm
Total Mass          ...   441.40 AMU
Quasi RRHO          ...     True
Cut-Off Frequency   ...     1.00 cm^-1

Throughout the following assumptions are being made:
  (1) The electronic state is orbitally nondegenerate
  (2) There are no thermally accessible electronically excited states
  (3) Hindered rotations indicated by low frequency modes are not
      treated as such but are treated as vibrations and this may
      cause some error
  (4) All equations used are the standard statistical mechanics
      equations for an ideal gas
  (5) All vibrations are strictly harmonic

freq.      27.30  E(vib)   ...       0.55 
freq.      38.78  E(vib)   ...       0.54 
freq.      47.11  E(vib)   ...       0.53 
freq.      50.43  E(vib)   ...       0.52 
freq.      60.34  E(vib)   ...       0.51 
freq.      61.30  E(vib)   ...       0.51 
freq.      71.76  E(vib)   ...       0.50 
freq.      81.74  E(vib)   ...       0.48 
freq.      86.49  E(vib)   ...       0.48 
freq.      96.88  E(vib)   ...       0.46 
freq.     117.10  E(vib)   ...       0.44 
freq.     121.13  E(vib)   ...       0.44 
freq.     138.53  E(vib)   ...       0.42 
freq.     147.81  E(vib)   ...       0.41 
freq.     162.47  E(vib)   ...       0.39 
freq.     176.58  E(vib)   ...       0.38 
freq.     179.58  E(vib)   ...       0.37 
freq.     196.33  E(vib)   ...       0.36 
freq.     217.09  E(vib)   ...       0.34 
freq.     235.08  E(vib)   ...       0.32 
freq.     270.59  E(vib)   ...       0.29 
freq.     285.31  E(vib)   ...       0.28 
freq.     298.52  E(vib)   ...       0.26 
freq.     307.10  E(vib)   ...       0.26 
freq.     327.15  E(vib)   ...       0.24 
freq.     354.30  E(vib)   ...       0.22 
freq.     357.85  E(vib)   ...       0.22 
freq.     385.89  E(vib)   ...       0.20 
freq.     401.28  E(vib)   ...       0.19 
freq.     408.20  E(vib)   ...       0.19 
freq.     415.44  E(vib)   ...       0.18 
freq.     428.29  E(vib)   ...       0.18 
freq.     432.40  E(vib)   ...       0.18 
freq.     436.23  E(vib)   ...       0.17 
freq.     450.94  E(vib)   ...       0.17 
freq.     485.86  E(vib)   ...       0.15 
freq.     503.89  E(vib)   ...       0.14 
freq.     525.05  E(vib)   ...       0.13 
freq.     540.09  E(vib)   ...       0.12 
freq.     568.36  E(vib)   ...       0.11 
freq.     570.46  E(vib)   ...       0.11 
freq.     581.23  E(vib)   ...       0.11 
freq.     593.34  E(vib)   ...       0.10 
freq.     602.71  E(vib)   ...       0.10 
freq.     610.30  E(vib)   ...       0.10 
freq.     614.66  E(vib)   ...       0.10 
freq.     628.94  E(vib)   ...       0.09 
freq.     643.75  E(vib)   ...       0.09 
freq.     652.41  E(vib)   ...       0.08 
freq.     653.73  E(vib)   ...       0.08 
freq.     664.15  E(vib)   ...       0.08 
freq.     689.20  E(vib)   ...       0.07 
freq.     703.62  E(vib)   ...       0.07 
freq.     724.02  E(vib)   ...       0.06 
freq.     736.43  E(vib)   ...       0.06 
freq.     739.57  E(vib)   ...       0.06 
freq.     750.25  E(vib)   ...       0.06 
freq.     759.44  E(vib)   ...       0.06 
freq.     772.64  E(vib)   ...       0.05 
freq.     802.50  E(vib)   ...       0.05 
freq.     817.62  E(vib)   ...       0.05 
freq.     819.09  E(vib)   ...       0.05 
freq.     825.37  E(vib)   ...       0.04 
freq.     843.31  E(vib)   ...       0.04 
freq.     846.89  E(vib)   ...       0.04 
freq.     855.88  E(vib)   ...       0.04 
freq.     903.24  E(vib)   ...       0.03 
freq.     909.49  E(vib)   ...       0.03 
freq.     917.83  E(vib)   ...       0.03 
freq.     921.21  E(vib)   ...       0.03 
freq.     938.75  E(vib)   ...       0.03 
freq.     950.25  E(vib)   ...       0.03 
freq.     950.83  E(vib)   ...       0.03 
freq.     963.21  E(vib)   ...       0.03 
freq.     979.59  E(vib)   ...       0.03 
freq.    1013.57  E(vib)   ...       0.02 
freq.    1024.86  E(vib)   ...       0.02 
freq.    1029.26  E(vib)   ...       0.02 
freq.    1037.73  E(vib)   ...       0.02 
freq.    1055.82  E(vib)   ...       0.02 
freq.    1060.40  E(vib)   ...       0.02 
freq.    1100.50  E(vib)   ...       0.02 
freq.    1124.24  E(vib)   ...       0.01 
freq.    1140.77  E(vib)   ...       0.01 
freq.    1160.45  E(vib)   ...       0.01 
freq.    1167.45  E(vib)   ...       0.01 
freq.    1179.03  E(vib)   ...       0.01 
freq.    1186.03  E(vib)   ...       0.01 
freq.    1197.97  E(vib)   ...       0.01 
freq.    1208.59  E(vib)   ...       0.01 
freq.    1238.82  E(vib)   ...       0.01 
freq.    1242.30  E(vib)   ...       0.01 
freq.    1258.62  E(vib)   ...       0.01 
freq.    1267.21  E(vib)   ...       0.01 
freq.    1272.03  E(vib)   ...       0.01 
freq.    1277.03  E(vib)   ...       0.01 
freq.    1302.75  E(vib)   ...       0.01 
freq.    1323.02  E(vib)   ...       0.01 
freq.    1326.30  E(vib)   ...       0.01 
freq.    1331.01  E(vib)   ...       0.01 
freq.    1342.16  E(vib)   ...       0.01 
freq.    1349.90  E(vib)   ...       0.01 
freq.    1357.05  E(vib)   ...       0.01 
freq.    1368.14  E(vib)   ...       0.01 
freq.    1373.44  E(vib)   ...       0.01 
freq.    1381.83  E(vib)   ...       0.01 
freq.    1394.63  E(vib)   ...       0.00 
freq.    1415.96  E(vib)   ...       0.00 
freq.    1434.30  E(vib)   ...       0.00 
freq.    1472.92  E(vib)   ...       0.00 
freq.    1488.05  E(vib)   ...       0.00 
freq.    1491.02  E(vib)   ...       0.00 
freq.    1495.95  E(vib)   ...       0.00 
freq.    1497.88  E(vib)   ...       0.00 
freq.    1503.22  E(vib)   ...       0.00 
freq.    1508.87  E(vib)   ...       0.00 
freq.    1519.33  E(vib)   ...       0.00 
freq.    1542.72  E(vib)   ...       0.00 
freq.    1546.91  E(vib)   ...       0.00 
freq.    1573.59  E(vib)   ...       0.00 
freq.    1605.46  E(vib)   ...       0.00 
freq.    1630.14  E(vib)   ...       0.00 
freq.    1639.86  E(vib)   ...       0.00 
freq.    1671.85  E(vib)   ...       0.00 
freq.    1688.45  E(vib)   ...       0.00 
freq.    1694.63  E(vib)   ...       0.00 
freq.    1720.55  E(vib)   ...       0.00 
freq.    1775.68  E(vib)   ...       0.00 
freq.    2890.29  E(vib)   ...       0.00 
freq.    3008.40  E(vib)   ...       0.00 
freq.    3019.32  E(vib)   ...       0.00 
freq.    3045.64  E(vib)   ...       0.00 
freq.    3049.16  E(vib)   ...       0.00 
freq.    3071.72  E(vib)   ...       0.00 
freq.    3075.34  E(vib)   ...       0.00 
freq.    3098.59  E(vib)   ...       0.00 
freq.    3100.72  E(vib)   ...       0.00 
freq.    3122.52  E(vib)   ...       0.00 
freq.    3140.93  E(vib)   ...       0.00 
freq.    3141.89  E(vib)   ...       0.00 
freq.    3161.56  E(vib)   ...       0.00 
freq.    3168.00  E(vib)   ...       0.00 
freq.    3491.48  E(vib)   ...       0.00 
freq.    3520.06  E(vib)   ...       0.00 
freq.    3536.62  E(vib)   ...       0.00 
freq.    3630.03  E(vib)   ...       0.00 
freq.    3676.33  E(vib)   ...       0.00 

------------
INNER ENERGY
------------

The inner energy is: U= E(el) + E(ZPE) + E(vib) + E(rot) + E(trans)
    E(el)   - is the total energy from the electronic structure calculation
              = E(kin-el) + E(nuc-el) + E(el-el) + E(nuc-nuc)
    E(ZPE)  - the the zero temperature vibrational energy from the frequency calculation
    E(vib)  - the the finite temperature correction to E(ZPE) due to population
              of excited vibrational states
    E(rot)  - is the rotational thermal energy
    E(trans)- is the translational thermal energy

Summary of contributions to the inner energy U:
Electronic energy                ...  -1569.49085643 Eh
Zero point energy                ...      0.38818019 Eh     243.59 kcal/mol
Thermal vibrational correction   ...      0.02442750 Eh      15.33 kcal/mol
Thermal rotational correction    ...      0.00141627 Eh       0.89 kcal/mol
Thermal translational correction ...      0.00141627 Eh       0.89 kcal/mol
-----------------------------------------------------------------------
Total thermal energy                  -1569.07541620 Eh


Summary of corrections to the electronic energy:
(perhaps to be used in another calculation)
Total thermal correction                  0.02726004 Eh      17.11 kcal/mol
Non-thermal (ZPE) correction              0.38818019 Eh     243.59 kcal/mol
-----------------------------------------------------------------------
Total correction                          0.41544023 Eh     260.69 kcal/mol


--------
ENTHALPY
--------

The enthalpy is H = U + kB*T
                kB is Boltzmann's constant
Total thermal energy              ...  -1569.07541620 Eh 
Thermal Enthalpy correction       ...      0.00094421 Eh       0.59 kcal/mol
-----------------------------------------------------------------------
Total Enthalpy                    ...  -1569.07447199 Eh


Note: Only C1 symmetry has been detected, increase convergence thresholds 
      if your molecule has a higher symmetry. Symmetry factor of 1.0 is   
      used for the rotational entropy correction. 
 

Note: Rotational entropy computed according to Herzberg 
Infrared and Raman Spectra, Chapter V,1, Van Nostrand Reinhold, 1945 
Point Group:  C1, Symmetry Number:   1  
Rotational constants in cm-1:     0.008802     0.003541     0.003116 

Vibrational entropy computed according to the QRRHO of S. Grimme
Chem.Eur.J. 2012 18 9955 using a reference frequency of 100.0 cm-1


-------
ENTROPY
-------

The entropy contributions are T*S = T*(S(el)+S(vib)+S(rot)+S(trans))
     S(el)   - electronic entropy
     S(vib)  - vibrational entropy
     S(rot)  - rotational entropy
     S(trans)- translational entropy
The entropies will be listed as multiplied by the temperature to get
units of energy

Electronic entropy                ...      0.00000000 Eh      0.00 kcal/mol
Vibrational entropy               ...      0.04290042 Eh     26.92 kcal/mol
Rotational entropy                ...      0.01713387 Eh     10.75 kcal/mol
Translational entropy             ...      0.02097411 Eh     13.16 kcal/mol
-----------------------------------------------------------------------
Final entropy term                ...      0.08100840 Eh     50.83 kcal/mol

In case the symmetry of your molecule has not been determined correctly
or in case you have a reason to use a different symmetry number we print 
out the resulting rotational entropy values for sn=1,12:

 non-linear molecules -----------------------------------
|  sn= 1 | S(rot)=       0.01713387 Eh     10.75 kcal/mol|
|  sn= 2 | S(rot)=       0.01647942 Eh     10.34 kcal/mol|
|  sn= 3 | S(rot)=       0.01609659 Eh     10.10 kcal/mol|
|  sn= 4 | S(rot)=       0.01582496 Eh      9.93 kcal/mol|
|  sn= 5 | S(rot)=       0.01561427 Eh      9.80 kcal/mol|
|  sn= 6 | S(rot)=       0.01544213 Eh      9.69 kcal/mol|
|  sn= 7 | S(rot)=       0.01529658 Eh      9.60 kcal/mol|
|  sn= 8 | S(rot)=       0.01517050 Eh      9.52 kcal/mol|
|  sn= 9 | S(rot)=       0.01505930 Eh      9.45 kcal/mol|
|  sn=10 | S(rot)=       0.01495982 Eh      9.39 kcal/mol|
|  sn=11 | S(rot)=       0.01486983 Eh      9.33 kcal/mol|
|  sn=12 | S(rot)=       0.01478767 Eh      9.28 kcal/mol|
 linear molecules ---------------------------------------
|  Dinfh | S(rot)=       0.01077485 Eh      6.76 kcal/mol|
|  Cinfv | S(rot)=       0.01142930 Eh      7.17 kcal/mol|
 --------------------------------------------------------


-------------------
GIBBS FREE ENERGY
-------------------

The Gibbs free energy is G = H - T*S

Total enthalpy                    ...  -1569.07447199 Eh 
Total entropy correction          ...     -0.08100840 Eh    -50.83 kcal/mol
-----------------------------------------------------------------------
Final Gibbs free energy         ...  -1569.15548040 Eh

For completeness - the Gibbs free energy minus the electronic energy
G-E(el)                           ...      0.33537604 Eh    210.45 kcal/mol


Maximum memory used throughout the entire PROP-calculation: 202.5 MB

--------------------------------
SUGGESTED CITATIONS FOR THIS RUN
--------------------------------

Below you find a list of papers that are relevant to this ORCA run
We neither can nor want to force you to cite these papers, but we appreciate if you do
You receive ORCA, which is the product of decades of hard work by many enthusiastic individuals, for free
The only thing we kindly ask in return is that you cite our papers,
We deeply appreciate it, if you show your appreciation for ORCA by not just citing the generic ORCA reference.

Please note that relegating all ORCA citations to the supporting information does *not* help us.
SI sections are not indexed - citations you put there will not count into any citation statistics
But we need these citations in order to attract the funding resources that allow us to do what we are doing

Therefore, if you are a happy ORCA user, please consider citing a few of the papers listed below in the main body of your paper

In addition to the list printed below, the program has created the file m1_00_Vitamin_B9-GFN1_00006-B97-3C-TZ.bibtex that contains the list in bibtex format
You can import this file easily into all common literature databanks and citation aid programs


List of essential papers. We consider these as the minimum necessary citations

  1. Neese,F.
     Software update: the ORCA program system, version 5.0
     WIRES Comput. Molec. Sci., 2022 12(1)e1606
     doi.org/10.1002/wcms.1606

List of papers to cite with high priority. The work reported in these papers was absolutely
necessary for this run to complete.
Our perspective: the developers of density functionals and basis sets usually get cited in chemistry papers
Good! But without the algorithms to do something with them, the functionals or basis sets would not do anything.
Hence, in our opinion, the algorithm design and method developments papers are equally worthy of getting cited

  1. Neese,F.
     An improvement of the resolution of the identity approximation for the formation of the Coulomb matrix
     J. Comp. Chem., 2003 24(14)1740-1747
     doi.org/10.1002/jcc.10318
  2. Bykov,D.; Petrenko,T.; Izsak,R.; Kossmann,S.; Becker,U.; Valeev,E.; Neese,F.
     Efficient implementation of the analytic second derivatives of Hartree-Fock and hybrid DFT energies: a detailed analysis of different approximations
     Molec. Phys., 2015 113 1961-1977
     doi.org/10.1080/00268976.2015.1025114
  3. Neese,F.
     The SHARK Integral Generation and Digestion System
     J. Comp. Chem., 2022  1-16
     doi.org/10.1002/jcc.26942
  4. Grimme,S.; Antony,J.; Ehrlich,S.; Krieg,H.
     A consistent and accurate ab initio parametrization of density functional dispersion correction (DFT-D) for the 94 elements H-Pu
     J. Chem. Phys., 2010 132 154104
     doi.org/10.1063/1.3382344
  5. Grimme,S.; Ehrlich,S.; Goerigk,L.
     Effect of the damping function in dispersion corrected density functional theory
     J. Comput. Chem., 2011 32(7)1456-1465
     doi.org/10.1002/jcc.21759

List of suggested additional citations. These are papers that are important in the 'surrounding' of 
of this run, or papers that preceded the highly important papers. If you like your results we are grateful for a citation.

  1. Neese,F.
     The ORCA program system
     WIRES Comput. Molec. Sci., 2012 2(1)73-78
     doi.org/10.1002/wcms.81
  2. Neese,F.
     Software update: the ORCA program system, version 4.0
     WIRES Comput. Molec. Sci., 2018 8(1)1-6
     doi.org/10.1002/wcms.1327
  3. Neese,F.; Wennmohs,F.; Becker,U.; Riplinger,C.
     The ORCA quantum chemistry program package
     J. Chem. Phys., 2020 152 Art. No. L224108
     doi.org/10.1063/5.0004608

List of optional additional citations

  1. Neese,F.
     Approximate second-order SCF convergence for spin unrestricted wavefunctions
     Chem. Phys. Lett., 2000 325(1-3)93-98
     doi.org/10.1016/s0009-2614(00)00662-x

Timings for individual modules:

Sum of individual times          ...     2735.390 sec (=  45.590 min)
Startup calculation              ...      243.446 sec (=   4.057 min)   8.9 %
SCF iterations                   ...     1046.936 sec (=  17.449 min)  38.3 %
Property integrals               ...      342.232 sec (=   5.704 min)  12.5 %
SCF Response                     ...      524.083 sec (=   8.735 min)  19.2 %
Property calculations            ...      111.161 sec (=   1.853 min)   4.1 %
SCF Gradient evaluation          ...      466.898 sec (=   7.782 min)  17.1 %
Geometry relaxation              ...        0.633 sec (=   0.011 min)   0.0 %
                             ****ORCA TERMINATED NORMALLY****
TOTAL RUN TIME: 0 days 0 hours 45 minutes 44 seconds 564 msec
