
                                 *****************
                                 * O   R   C   A *
                                 *****************

                                            #,                                       
                                            ###                                      
                                            ####                                     
                                            #####                                    
                                            ######                                   
                                           ########,                                 
                                     ,,################,,,,,                         
                               ,,#################################,,                 
                          ,,##########################################,,             
                       ,#########################################, ''#####,          
                    ,#############################################,,   '####,        
                  ,##################################################,,,,####,       
                ,###########''''           ''''###############################       
              ,#####''   ,,,,##########,,,,          '''####'''          '####       
            ,##' ,,,,###########################,,,                        '##       
           ' ,,###''''                  '''############,,,                           
         ,,##''                                '''############,,,,        ,,,,,,###''
      ,#''                                            '''#######################'''  
     '                                                          ''''####''''         
             ,#######,   #######,   ,#######,      ##                                
            ,#'     '#,  ##    ##  ,#'     '#,    #''#        ,####,   ,####,        
            ##       ##  ##   ,#'  ##            #'  '#       #'       #'  '#        
            ##       ##  #######   ##           ,######,      #####,   #    #        
            '#,     ,#'  ##    ##  '#,     ,#' ,#      #,     #,   #   #,  ,#        
             '#######'   ##     ##  '#######'  #'      '#     '####' # '####'        



                #########################################################
                #                        -***-                          #
                #          Department of theory and spectroscopy        #
                #                                                       #
                #                      Frank Neese                      #
                #                                                       #
                #     Directorship, Architecture, Infrastructure        #
                #                    SHARK, DRIVERS                     #
                #        Core code/Algorithms in most modules           #
                #                                                       #
                #        Max Planck Institute fuer Kohlenforschung      #
                #                Kaiser Wilhelm Platz 1                 #
                #                 D-45470 Muelheim/Ruhr                 #
                #                      Germany                          #
                #                                                       #
                #                  All rights reserved                  #
                #                        -***-                          #
                #########################################################


                         Program Version 6.0.1  -  RELEASE   -


 With contributions from (in alphabetic order):
[Max-Planck-Institut fuer Kohlenforschung]                               
  Daniel Aravena         : Magnetic Suceptibility                        
  Michael Atanasov       : Ab Initio Ligand Field Theory (pilot matlab implementation)
  Alexander A. Auer      : GIAO ZORA, VPT2 properties, NMR spectrum      
  Ute Becker             : All parallelization in ORCA, NUMFREQ, NUMCALC 
  Giovanni Bistoni       : ED, misc. LED, open-shell LED, HFLD           
  Martin Brehm           : Molecular dynamics                            
  Dmytro Bykov           : pre 5.0 version of the SCF Hessian            
  Marcos Casanova-Páez   : Triplet and SCS-CIS(D). UHF-(DLPNO)-IP/EA/STEOM-CCSD. UHF-CVS-IP/STEOM-CCSD   
  Vijay G. Chilkuri      : MRCI spin determinant printing, contributions to CSF-ICE 
  Pauline Colinet        : FMM embedding                                 
  Dipayan Datta          : RHF DLPNO-CCSD density                        
  Achintya Kumar Dutta   : EOM-CC, STEOM-CC                              
  Nicolas Foglia         : Exact transition moments, OPA infrastructure, MCD improvements    
  Dmitry Ganyushin       : Spin-Orbit,Spin-Spin,Magnetic field MRCI      
  Miquel Garcia-Rates    : C-PCM and meta-GGA Hessian, CCSD/C-PCM, Gaussian charge scheme 
  Tiago L. C. Gouveia    : GS-ROHF, GS-ROCIS                             
  Yang Guo               : DLPNO-NEVPT2, F12-NEVPT2, CIM, IAO-localization        
  Andreas Hansen         : Spin unrestricted coupled pair/coupled cluster methods 
  Ingolf Harden          : AUTO-CI MPn and infrastructure                
  Benjamin Helmich-Paris : MC-RPA, TRAH-(SCF,CASSCF), AVAS, COSX integrals, SCF dyn. polar. 
  Lee Huntington         : MR-EOM, pCC                                   
  Robert Izsak           : Overlap fitted RIJCOSX, COSX-SCS-MP3, EOM     
  Riya Kayal             : Wick's Theorem for AUTO-CI, AUTO-CI UHF-CCSDT 
  Emily Kempfer          : AUTO-CI, RHF CISDT and CCSDT                  
  Christian Kollmar      : KDIIS, OOCD, Brueckner-CCSD(T), CCSD density, CASPT2, CASPT2-K, improved NEVPT2 
  Axel Koslowski         : Symmetry handling                             
  Simone Kossmann        : meta-GGA functionals, TD-DFT gradient, OOMP2, (MP2 Hessian; deprecated post 5.0) 
  Lucas Lang             : DCDCAS                                        
  Marvin Lechner         : AUTO-CI (C++ implementation), FIC-MRCC        
  Spencer Leger          : CASSCF response                               
  Dagmar Lenk            : GEPOL surface, SMD, ORCA-2-JSON               
  Dimitrios Liakos       : Extrapolation schemes; Compound Job, initial MDCI parallelization 
  Dimitrios Manganas     : Further ROCIS development; embedding schemes. LFT, Crystal Embedding 
  Dimitrios Pantazis     : SARC Basis sets                               
  Anastasios Papadopoulos: AUTO-CI, single reference methods and gradients 
  Taras Petrenko         : pre 6.0 DFT Hessian and TD-DFT gradient, (ASA, deprecated), ECA, 1-Electron XAS/XES, NRVS 
  Peter Pinski           : DLPNO-MP2, DLPNO-MP2 Gradient                 
  Christoph Reimann      : Effective Core Potentials                     
  Marius Retegan         : Local ZFS, SOC                                
  Christoph Riplinger    : Optimizer, TS searches, QM/MM, DLPNO-CCSD(T), (RO)-DLPNO pert. Triples 
  Michael Roemelt        : Original ROCIS implementation                 
  Masaaki Saitow         : Open-shell DLPNO-CCSD energy and density      
  Barbara Sandhoefer     : DKH picture change effects                    
  Kantharuban Sivalingam : CASSCF convergence/infrastructure, NEVPT2 and variants, FIC-MRCI 
  Bernardo de Souza      : ESD, SOC TD-DFT                               
  Georgi L. Stoychev     : AutoAux, RI-MP2 NMR, DLPNO-MP2 response, X2C  
  Van Anh Tran           : RI-MP2 g-tensors                              
  Willem Van den Heuvel  : Paramagnetic NMR                              
  Zikuan Wang            : NOTCH, Electric field optimization            
  Frank Wennmohs         : Technical directorship and infrastructure     
  Hang Xu                : AUTO-CI-Response properties                   
                                                                         
[FACCTs GmbH]                                                            
  Markus Bursch, Miquel Garcia-Rates, Christoph Riplinger, Bernardo de Souza, Georgi L. Stoychev 
                                                                 
  APM, Basis sets (HGBS, AHGBS, def-TZVP (Ac-Lr), def2-XVPD (La-Lu)), CI-OPT, improved COSX, DLPNO-Multilevel,           
  DOCKER, DRACO, updates on ESD, GOAT, IRC, LR-CPCM, MBIS, meta-GGA TD-DFT gradient, ML-optimized integration grids, 
  MM, NACMEs, nearIR, NEB, NEB-TS, NL-DFT gradient (VV10), 2- and 3-layer-ONIOM, interface openCOSMO-RS, QMMM,   
  Crystal-QMMM, SF, symmetry and pop. for TD-DFT, r2SCAN hybrids, SOLVATOR                                   
                                                                         
[Other institutions]                                                     
  V. Asgeirsson          : NEB                                           
  Christoph Bannwarth    : sTDA-DFT, sTD-DFT, PBEh-3c, B97-3c, D3        
  Sebastian Ehlert       : rSCAN, r2SCAN, r2SCAN-3c, D4, dhf basis sets  
  Marvin Friede          : D4 for Fr, Ra, Ac-Lr                          
  Lars Goerigk           : TD-DFT with DH, B97 family of functionals     
  Stefan Grimme          : VdW corrections, initial TS optimization, DFT functionals, gCP, sTDA/sTD-DF 
  Waldemar Hujo          : DFT-NL                                        
  H. Jonsson             : NEB                                           
  Holger Kruse           : gCP                                           
  Marcel Mueller         : wB97X-3c, vDZP basis set                      
  Hagen Neugebauer       : wr2SCAN                                       
  Tobias Risthaus        : range-separated hybrid DFT                    
  Lukas Wittmann         : regularized MP2, r2SCAN double-hybrids, wr2SCAN        
                                                                         
We gratefully acknowledge several colleagues who have allowed us to      
interface, adapt or use parts of their codes:                            
  Ed Valeev, F. Pavosevic, A. Kumar             : LibInt (2-el integral package), F12 methods 
  Garnet Chan, S. Sharma, J. Yang, R. Olivares  : DMRG                   
  Ulf Ekstrom                                   : XCFun DFT Library      
  Mihaly Kallay                                 : mrcc  (arbitrary order and MRCC methods)
  Frank Weinhold                                : gennbo (NPA and NBO analysis)           
  Simon Mueller                                 : openCOSMO-RS                            
  Christopher J. Cramer and Donald G. Truhlar   : smd solvation model                     
  S Lehtola, MJT Oliveira, MAL Marques          : LibXC Library                           
  Liviu Ungur et al                             : ANISO software                          


 Your calculation uses the libint2 library for the computation of 2-el integrals
 For citations please refer to: http://libint.valeyev.net

 Your ORCA version has been built with support for libXC version: 6.2.2
 For citations please refer to: https://libxc.gitlab.io

 This ORCA versions uses:
   CBLAS   interface :  Fast vector & matrix operations
   LAPACKE interface :  Fast linear algebra routines
   SCALAPACK package :  Parallel linear algebra routines
   Shared memory     :  Shared parallel matrices
   BLAS/LAPACK       :  OpenBLAS 0.3.27  USE64BITINT DYNAMIC_ARCH NO_AFFINITY Zen SINGLE_THREADED
        Core in use  :  Zen
   Copyright (c) 2011-2014, The OpenBLAS Project


NOTE: MaxCore=6000 MB was set to SCF,MP2,MDCI,CIPSI,MRCI and CIS
      => If you want to overwrite this, your respective input block should be placed after the MaxCore statement
Your calculation utilizes the atom-pairwise dispersion correction
with the Becke-Johnson damping scheme (D3BJ)


Your calculation employs the composite approach B97-3c by Grimme and coworkers.
For the correct reference, please check the publication list of the Grimme group:
http://www.thch.uni-bonn.de/tc/index.php?section=publikationen&subsection=grimme#2017
   

XCFun DFT library Copyright 2009-2010 Ulf Ekstrom and contributors.
See http://admol.org/xcfun for more information.
This is free software; see the source code for copying conditions.
There is ABSOLUTELY NO WARRANTY; not even for MERCHANTABILITY or FITNESS FOR A PARTICULAR PURPOSE.
For details see the documentation.
Scientific users of this library should cite U. Ekstrom, L. Visscher, R. Bast, A. J. Thorvaldsen and K. Ruud;
J.Chem.Theor.Comp. 2010, DOI: 10.1021/ct100117s
XCFun Version 0.99 

================================================================================

----- Orbital basis set information -----
Your calculation utilizes the basis: def2-mTZVP
----- AuxJ basis set information -----
Your calculation utilizes the basis: def2-mTZVP/J
================================================================================
                                        WARNINGS
                       Please study these warnings very carefully!
================================================================================


WARNING: Geometry Optimization
  ===> : Switching off AutoStart
         For restart on a previous wavefunction, please use MOREAD

================================================================================
                                       INPUT FILE
================================================================================
NAME = m1_00_Vitamin_B9-GFN1_00003-B97-3C-TZ.inp
|  1> %pal nprocs 16 end
|  2> %MaxCore 6000
|  3> # put your comments here
|  4> ! B97-3C  OPT  FREQ DEFGRID3 NOTRAH
|  5> %scf MaxIter 800 end
|  6> %output
|  7> Print [P_Hirshfeld] 1
|  8> end
|  9> %geom
| 10> MaxIter 3000
| 11>  TolE 1e-6 #TolE 5e-6 Energy change (a.u.)
| 12>  TolRMSG 3e-5 #TolRMSG 1e-4 RMS gradient (a.u.)
| 13>  TolMaxG 1e-4 #TolMaxG 3e-3 Max. element of gradient (a.u.)
| 14>  TolRMSD 2e-3 #TolRMSD 2e-3 RMS displacement (a.u.)
| 15>  TolMaxD 4e-3 #TolMaxD 4e-3 Max. displacement (a.u.)
| 16> end
| 17> * xyz 0 1
| 18>  O -0.09715624096423 4.35244707053807 -4.96375810837032
| 19>  O -0.51630624343731 1.94039529090325 -5.73724555635331
| 20>  O -1.16151829174897 5.50352494911179 -3.38589164622574
| 21>  O -3.76099452301072 1.13472259127657 -2.25065629577992
| 22>  O -5.27721906614922 0.80222337380494 -3.85295304437586
| 23>  O -3.45381220468602 -1.41303842848057 -2.16201183741521
| 24>  N -1.47862849231109 2.13699310379251 -3.71778992041877
| 25>  N 1.12223560221619 -3.78553822636362 -3.52410493117233
| 26>  N -1.86371362641320 -3.64396813329918 -2.81775919103917
| 27>  N -2.69390530738978 -5.18380965063193 -4.98790116051165
| 28>  N -4.83011898254450 -1.94313556142325 -3.87586479638833
| 29>  N -4.52352258528063 -3.79499560213691 -5.29883049117987
| 30>  N -6.25049205295792 -2.32399724078389 -5.64950182760841
| 31>  C -2.12186229851121 3.40087210754423 -4.07051652466873
| 32>  C -3.24661647511067 3.73898419977479 -3.09029299034177
| 33>  C -4.57106541243357 3.04158468736779 -3.40974636207726
| 34>  C -0.75458004557028 1.45147711264522 -4.62473505609207
| 35>  C -0.25183129522460 0.11580391656965 -4.24438578976239
| 36>  C -1.06030743212005 4.53941350567500 -4.09269572361221
| 37>  C 0.68253217017495 -2.47893948984848 -3.72618443408153
| 38>  C 0.28372508613086 -4.69172837967451 -2.72491727354685
| 39>  C -0.42336046796685 -0.46650176671328 -2.98470720440315
| 40>  C 0.44419632787796 -0.60579986388270 -5.22331385377721
| 41>  C 0.05023062444086 -1.73773313410726 -2.72195561062240
| 42>  C 0.90365779225811 -1.88170633048418 -4.97309481145882
| 43>  C -4.56568938432219 1.54173507723457 -3.20091431686362
| 44>  C -1.11427155119468 -4.62742695599352 -3.28621367104131
| 45>  C -3.00660509251332 -3.37349553318196 -3.45930440556087
| 46>  C -1.55686272390597 -5.41152910220576 -4.36418738921591
| 47>  C -3.41885867375992 -4.12586518141756 -4.57688886161105
| 48>  C -3.74689655379057 -2.18705905505418 -3.07136473950064
| 49>  C -5.16148572846589 -2.71805611154449 -4.95102678490621
| 50>  H -2.50856998924952 3.30678287273868 -5.09632725172817
| 51>  H -2.93225562280879 3.49827356953900 -2.07139343518834
| 52>  H -3.40994221144705 4.81958760840663 -3.13216636576885
| 53>  H -4.88770763179842 3.24133452900511 -4.43628337266857
| 54>  H -5.34689041102913 3.43560066461628 -2.74530365307847
| 55>  H -1.68365048267280 1.75676021545189 -2.80744273180901
| 56>  H 0.29017935125291 -4.36980326450869 -1.68132700262941
| 57>  H 0.71783386839180 -5.69108823144587 -2.79903752280832
| 58>  H -0.94148283882270 0.06306778500253 -2.19293618831856
| 59>  H 0.59820360303303 -0.15199293252969 -6.19613623619465
| 60>  H 1.38684236593002 -4.22325727909511 -4.40132299352600
| 61>  H -0.10425821040873 -2.16586365812170 -1.74020007708562
| 62>  H 1.41971803201540 -2.43750570877959 -5.74877649978714
| 63>  H -0.95879990950004 -6.24571187344182 -4.72030589276076
| 64>  H -0.18531235288692 3.46271842723454 -5.43508217907556
| 65>  H -5.29371928093472 -1.04282223101629 -3.74114873766215
| 66>  H -3.74233997115816 0.11626243732930 -2.17137010928454
| 67>  H -6.55259064533108 -1.36922885133200 -5.55845704183981
| 68>  H -6.37447451391885 -2.76946031801894 -6.54254009884361
| 69> *
| 70> 
| 71> 
| 72> 
| 73> 
| 74>                          ****END OF INPUT****
================================================================================

                       *****************************
                       * Geometry Optimization Run *
                       *****************************

Geometry optimization settings:
Update method            Update   .... BFGS
Choice of coordinates    CoordSys .... (2022) Redundant Internals
Initial Hessian          InHess   .... Almloef's Model
Max. no of cycles        MaxIter  .... 3000

Convergence Tolerances:
Energy Change            TolE     ....  1.0000e-06 Eh
Max. Gradient            TolMAXG  ....  1.0000e-04 Eh/bohr
RMS Gradient             TolRMSG  ....  3.0000e-05 Eh/bohr
Max. Displacement        TolMAXD  ....  4.0000e-03 bohr
RMS Displacement         TolRMSD  ....  2.0000e-03 bohr
Strict Convergence                .... False

------------------------------------------------------------------------------
                        ORCA OPTIMIZATION COORDINATE SETUP
------------------------------------------------------------------------------

The optimization will be done in redundant internal coordinates (2022)
Making redundant internal coordinates   ...  (2022 redundants) done
Evaluating the initial hessian          ...  (Almloef) done
Evaluating the coordinates              ...  done
Calculating the B-matrix                .... done
Calculating the G-matrix                .... done
Diagonalizing the G-matrix              .... done
Small eigenvalue found = 1.354e-03
Small eigenvalue found = 3.659e-03
Small eigenvalue found = 8.446e-03
Small eigenvalue found = 1.126e-02
Small eigenvalue found = 1.879e-02
Small eigenvalue found = 2.319e-02
The first mode is                       ....  110
The number of degrees of freedom        ....  147

    -----------------------------------------------------------------
                    Redundant Internal Coordinates


    -----------------------------------------------------------------
         Definition                    Initial Value    Approx d2E/dq
    -----------------------------------------------------------------
      1. B(C  13,N   6)                  1.4614         0.430561   
      2. B(C  14,C  13)                  1.5298         0.373875   
      3. B(C  15,C  14)                  1.5305         0.372821   
      4. B(C  16,N   6)                  1.3479         0.653291   
      5. B(C  16,O   1)                  1.2383         0.976863   
      6. B(C  17,C  16)                  1.4770         0.453922   
      7. B(C  18,O   0)                  1.3120         0.745257   
      8. B(C  18,C  13)                  1.5568         0.338531   
      9. B(C  18,O   2)                  1.1997         1.125787   
     10. B(C  19,N   7)                  1.3933         0.552788   
     11. B(C  20,N   7)                  1.4707         0.416017   
     12. B(C  21,C  17)                  1.3983         0.605994   
     13. B(C  22,C  17)                  1.4012         0.599528   
     14. B(C  23,C  21)                  1.3818         0.643917   
     15. B(C  23,C  19)                  1.3992         0.604107   
     16. B(C  24,C  22)                  1.3790         0.650552   
     17. B(C  24,C  19)                  1.4001         0.601968   
     18. B(C  25,C  15)                  1.5143         0.395714   
     19. B(C  25,O   4)                  1.2159         1.060988   
     20. B(C  25,O   3)                  1.3100         0.750688   
     21. B(C  26,C  20)                  1.5078         0.405258   
     22. B(C  26,N   8)                  1.3222         0.717779   
     23. B(C  27,N   8)                  1.3383         0.676745   
     24. B(C  28,C  26)                  1.4045         0.592301   
     25. B(C  28,N   9)                  1.3167         0.732480   
     26. B(C  29,C  27)                  1.4089         0.582881   
     27. B(C  29,N   9)                  1.3467         0.655962   
     28. B(C  29,N  11)                  1.3605         0.623653   
     29. B(C  30,C  27)                  1.4513         0.498884   
     30. B(C  30,N  10)                  1.3712         0.599691   
     31. B(C  30,O   5)                  1.2296         1.008730   
     32. B(C  31,N  12)                  1.3524         0.642400   
     33. B(C  31,N  11)                  1.2991         0.781336   
     34. B(C  31,N  10)                  1.3661         0.610910   
     35. B(H  32,C  13)                  1.1003         0.346716   
     36. B(H  33,C  14)                  1.0931         0.355991   
     37. B(H  34,C  14)                  1.0937         0.355267   
     38. B(H  35,C  15)                  1.0927         0.356578   
     39. B(H  36,C  15)                  1.0948         0.353776   
     40. B(H  37,O   3)                  2.2388         0.004739   
     41. B(H  37,N   6)                  1.0076         0.436472   
     42. B(H  38,C  20)                  1.0921         0.357287   
     43. B(H  39,C  20)                  1.0921         0.357344   
     44. B(H  40,C  21)                  1.0843         0.367664   
     45. B(H  41,C  22)                  1.0845         0.367511   
     46. B(H  42,N   7)                  1.0154         0.424140   
     47. B(H  43,C  23)                  1.0821         0.370662   
     48. B(H  44,C  24)                  1.0849         0.366969   
     49. B(H  45,C  28)                  1.0864         0.364835   
     50. B(H  46,O   1)                  1.5869         0.051970   
     51. B(H  46,O   0)                  1.0107         0.431581   
     52. B(H  47,O   4)                  1.8485         0.019880   
     53. B(H  47,N  10)                  1.0216         0.414677   
     54. B(H  48,O   4)                  2.3778         0.002844   
     55. B(H  48,O   5)                  1.5563         0.058156   
     56. B(H  48,O   3)                  1.0217         0.414485   
     57. B(H  49,N  12)                  1.0056         0.439836   
     58. B(H  50,N  12)                  1.0056         0.439683   
     59. A(C  18,O   0,H  46)          111.7785         0.369971   
     60. A(C  25,O   3,H  48)          112.1607         0.367870   
     61. A(C  13,N   6,H  37)          117.0561         0.337794   
     62. A(C  13,N   6,C  16)          120.9242         0.405246   
     63. A(C  16,N   6,H  37)          121.6876         0.362415   
     64. A(C  19,N   7,H  42)          111.1722         0.350569   
     65. A(C  20,N   7,H  42)          110.6341         0.334270   
     66. A(C  19,N   7,C  20)          118.4696         0.391153   
     67. A(C  26,N   8,C  27)          117.6803         0.446873   
     68. A(C  28,N   9,C  29)          117.1382         0.445989   
     69. A(C  31,N  10,H  47)          119.5784         0.355192   
     70. A(C  30,N  10,H  47)          115.9708         0.354078   
     71. A(C  30,N  10,C  31)          123.5373         0.424737   
     72. A(C  29,N  11,C  31)          117.2750         0.447127   
     73. A(C  31,N  12,H  50)          115.3935         0.361829   
     74. A(H  49,N  12,H  50)          117.6426         0.304831   
     75. A(C  31,N  12,H  49)          118.1516         0.361851   
     76. A(C  14,C  13,H  32)          110.9697         0.322353   
     77. A(C  18,C  13,H  32)          106.7923         0.317166   
     78. A(N   6,C  13,C  14)          111.1074         0.370030   
     79. A(C  14,C  13,C  18)          110.4159         0.357351   
     80. A(N   6,C  13,C  18)          109.6215         0.363784   
     81. A(N   6,C  13,H  32)          107.8043         0.327946   
     82. A(C  15,C  14,H  34)          108.2394         0.323493   
     83. A(H  33,C  14,H  34)          107.2298         0.289701   
     84. A(C  13,C  14,H  33)          109.7029         0.323751   
     85. A(C  13,C  14,C  15)          113.6899         0.363276   
     86. A(C  13,C  14,H  34)          107.6765         0.323643   
     87. A(C  15,C  14,H  33)          110.0637         0.323601   
     88. A(H  35,C  15,H  36)          107.3986         0.289585   
     89. A(C  14,C  15,H  36)          108.8174         0.323270   
     90. A(C  14,C  15,C  25)          114.7993         0.366823   
     91. A(C  25,C  15,H  36)          105.9782         0.326451   
     92. A(C  25,C  15,H  35)          108.1584         0.326876   
     93. A(C  14,C  15,H  35)          111.3185         0.323689   
     94. A(N   6,C  16,C  17)          118.0027         0.411706   
     95. A(O   1,C  16,C  17)          121.5271         0.442471   
     96. A(O   1,C  16,N   6)          120.4684         0.469676   
     97. A(C  21,C  17,C  22)          118.4134         0.429687   
     98. A(C  16,C  17,C  22)          117.0574         0.408119   
     99. A(C  16,C  17,C  21)          124.5292         0.408895   
    100. A(O   0,C  18,O   2)          124.5822         0.493994   
    101. A(O   2,C  18,C  13)          121.4523         0.430562   
    102. A(O   0,C  18,C  13)          113.9419         0.400115   
    103. A(C  23,C  19,C  24)          118.9859         0.429760   
    104. A(N   7,C  19,C  24)          118.6413         0.420233   
    105. A(N   7,C  19,C  23)          122.3636         0.420499   
    106. A(N   7,C  20,H  38)          109.5274         0.327712   
    107. A(N   7,C  20,C  26)          107.4605         0.372987   
    108. A(H  38,C  20,H  39)          109.4049         0.290131   
    109. A(C  26,C  20,H  39)          112.4764         0.328278   
    110. A(N   7,C  20,H  39)          107.4772         0.327721   
    111. A(C  26,C  20,H  38)          110.4026         0.328270   
    112. A(C  17,C  21,H  40)          120.8657         0.352786   
    113. A(C  23,C  21,H  40)          118.3087         0.356435   
    114. A(C  17,C  21,C  23)          120.8218         0.435240   
    115. A(C  17,C  22,C  24)          121.0116         0.435202   
    116. A(C  24,C  22,H  41)          120.1744         0.357031   
    117. A(C  17,C  22,H  41)          118.7994         0.352121   
    118. A(C  21,C  23,H  43)          119.1806         0.356927   
    119. A(C  19,C  23,H  43)          120.4036         0.353085   
    120. A(C  19,C  23,C  21)          120.3824         0.434995   
    121. A(C  19,C  24,C  22)          120.2409         0.435521   
    122. A(C  22,C  24,H  44)          120.1840         0.356941   
    123. A(C  19,C  24,H  44)          119.5613         0.352275   
    124. A(O   4,C  25,C  15)          121.7609         0.438128   
    125. A(O   3,C  25,C  15)          114.2005         0.411832   
    126. A(O   3,C  25,O   4)          124.0213         0.489254   
    127. A(C  20,C  26,C  28)          123.6455         0.399180   
    128. A(N   8,C  26,C  28)          120.5664         0.439119   
    129. A(N   8,C  26,C  20)          115.1723         0.410302   
    130. A(C  29,C  27,C  30)          119.9567         0.412943   
    131. A(N   8,C  27,C  30)          118.2107         0.421321   
    132. A(N   8,C  27,C  29)          121.4817         0.433234   
    133. A(C  26,C  28,H  45)          120.4475         0.350966   
    134. A(N   9,C  28,H  45)          116.9288         0.361607   
    135. A(N   9,C  28,C  26)          122.6237         0.440730   
    136. A(N  11,C  29,C  27)          121.9134         0.426927   
    137. A(N   9,C  29,C  27)          120.2696         0.430812   
    138. A(N   9,C  29,N  11)          117.7861         0.433227   
    139. A(N  10,C  30,C  27)          113.0526         0.412352   
    140. A(O   5,C  30,C  27)          126.2083         0.452742   
    141. A(O   5,C  30,N  10)          120.6794         0.465093   
    142. A(N  11,C  31,N  12)          119.9130         0.449536   
    143. A(N  10,C  31,N  12)          115.8807         0.430006   
    144. A(N  10,C  31,N  11)          124.1811         0.445458   
    145. D(C  14,C  13,N   6,H  37)    -13.1911         0.015805   
    146. D(C  18,C  13,N   6,C  16)    -77.3831         0.015805   
    147. D(C  18,C  13,N   6,H  37)    109.1250         0.015805   
    148. D(H  32,C  13,N   6,C  16)     38.5062         0.015805   
    149. D(C  14,C  13,N   6,C  16)    160.3009         0.015805   
    150. D(C  15,C  14,C  13,N   6)    -82.7710         0.011161   
    151. D(C  15,C  14,C  13,H  32)     37.1595         0.011161   
    152. D(H  33,C  14,C  13,C  18)    -80.9109         0.011161   
    153. D(C  15,C  14,C  13,C  18)    155.3747         0.011161   
    154. D(H  33,C  14,C  13,N   6)     40.9435         0.011161   
    155. D(H  33,C  14,C  13,H  32)    160.8739         0.011161   
    156. D(H  35,C  15,C  14,C  13)    -54.5662         0.011101   
    157. D(C  25,C  15,C  14,H  34)   -171.6937         0.011101   
    158. D(C  25,C  15,C  14,H  33)    -54.7970         0.011101   
    159. D(C  25,C  15,C  14,C  13)     68.7212         0.011101   
    160. D(H  35,C  15,C  14,H  34)     65.0189         0.011101   
    161. D(H  35,C  15,C  14,H  33)   -178.0843         0.011101   
    162. D(C  17,C  16,N   6,H  37)     -0.5040         0.034861   
    163. D(C  17,C  16,N   6,C  13)   -173.6914         0.034861   
    164. D(O   1,C  16,N   6,H  37)    179.9803         0.034861   
    165. D(O   1,C  16,N   6,C  13)      6.7929         0.034861   
    166. D(C  22,C  17,C  16,N   6)    177.0613         0.014041   
    167. D(C  22,C  17,C  16,O   1)     -3.4285         0.014041   
    168. D(C  21,C  17,C  16,N   6)     -2.9924         0.014041   
    169. D(C  21,C  17,C  16,O   1)    176.5179         0.014041   
    170. D(O   0,C  18,C  13,H  32)    -55.9131         0.008716   
    171. D(O   0,C  18,C  13,C  14)   -176.6564         0.008716   
    172. D(O   0,C  18,C  13,N   6)     60.6165         0.008716   
    173. D(C  13,C  18,O   0,H  46)     -3.4527         0.042125   
    174. D(O   2,C  18,C  13,N   6)   -121.0733         0.008716   
    175. D(O   2,C  18,O   0,H  46)    178.2982         0.042125   
    176. D(O   2,C  18,C  13,C  14)      1.6539         0.008716   
    177. D(C  24,C  19,N   7,H  42)    -12.2574         0.024369   
    178. D(C  24,C  19,N   7,C  20)   -142.0436         0.024369   
    179. D(C  23,C  19,N   7,H  42)    168.8617         0.024369   
    180. D(C  23,C  19,N   7,C  20)     39.0755         0.024369   
    181. D(H  39,C  20,N   7,C  19)    172.1142         0.014760   
    182. D(H  38,C  20,N   7,H  42)    160.8491         0.014760   
    183. D(H  38,C  20,N   7,C  19)    -69.1190         0.014760   
    184. D(C  26,C  20,N   7,H  42)    -79.1965         0.014760   
    185. D(C  26,C  20,N   7,C  19)     50.8354         0.014760   
    186. D(H  40,C  21,C  17,C  22)    179.0005         0.025344   
    187. D(H  40,C  21,C  17,C  16)     -0.9452         0.025344   
    188. D(C  23,C  21,C  17,C  22)     -1.7276         0.025344   
    189. D(C  23,C  21,C  17,C  16)    178.3267         0.025344   
    190. D(H  41,C  22,C  17,C  21)   -178.7836         0.024776   
    191. D(H  41,C  22,C  17,C  16)      1.1661         0.024776   
    192. D(C  24,C  22,C  17,C  21)      2.6028         0.024776   
    193. D(C  24,C  22,C  17,C  16)   -177.4475         0.024776   
    194. D(H  43,C  23,C  21,H  40)     -0.2113         0.028832   
    195. D(H  43,C  23,C  21,C  17)   -179.5015         0.028832   
    196. D(C  19,C  23,C  21,H  40)    177.6960         0.028832   
    197. D(C  19,C  23,C  21,C  17)     -1.5942         0.028832   
    198. D(H  43,C  23,C  19,C  24)   -178.0746         0.025177   
    199. D(H  43,C  23,C  19,N   7)      0.8026         0.025177   
    200. D(C  21,C  23,C  19,C  24)      4.0439         0.025177   
    201. D(C  21,C  23,C  19,N   7)   -177.0790         0.025177   
    202. D(C  19,C  24,C  22,C  17)     -0.1480         0.029471   
    203. D(H  44,C  24,C  19,C  23)    178.1705         0.024990   
    204. D(H  44,C  24,C  19,N   7)     -0.7488         0.024990   
    205. D(C  22,C  24,C  19,C  23)     -3.1754         0.024990   
    206. D(C  19,C  24,C  22,H  41)   -178.7426         0.029471   
    207. D(C  22,C  24,C  19,N   7)    177.9053         0.024990   
    208. D(H  44,C  24,C  22,H  41)     -0.0969         0.029471   
    209. D(H  44,C  24,C  22,C  17)    178.4977         0.029471   
    210. D(O   4,C  25,C  15,H  35)    -25.9813         0.011633   
    211. D(O   4,C  25,C  15,C  14)   -150.9422         0.011633   
    212. D(O   3,C  25,C  15,H  36)    -89.6098         0.011633   
    213. D(O   3,C  25,C  15,H  35)    155.4768         0.011633   
    214. D(O   3,C  25,C  15,C  14)     30.5159         0.011633   
    215. D(C  15,C  25,O   3,H  48)   -176.8050         0.047332   
    216. D(O   4,C  25,O   3,H  48)      4.6908         0.047332   
    217. D(C  28,C  26,C  20,N   7)     85.6913         0.012175   
    218. D(N   8,C  26,C  20,H  39)    156.5769         0.012175   
    219. D(N   8,C  26,C  20,H  38)     34.0627         0.012175   
    220. D(N   8,C  26,C  20,N   7)    -85.3336         0.012175   
    221. D(C  28,C  26,N   8,C  27)     -4.2065         0.038773   
    222. D(C  28,C  26,C  20,H  38)   -154.9123         0.012175   
    223. D(C  20,C  26,N   8,C  27)    167.1185         0.038773   
    224. D(C  30,C  27,N   8,C  26)   -171.7552         0.034082   
    225. D(C  29,C  27,N   8,C  26)      1.4390         0.034082   
    226. D(H  45,C  28,C  26,C  20)     12.0492         0.024152   
    227. D(H  45,C  28,C  26,N   8)   -177.3885         0.024152   
    228. D(N   9,C  28,C  26,C  20)   -167.9310         0.024152   
    229. D(N   9,C  28,C  26,N   8)      2.6314         0.024152   
    230. D(H  45,C  28,N   9,C  29)   -178.0065         0.040545   
    231. D(C  26,C  28,N   9,C  29)      1.9743         0.040545   
    232. D(N  11,C  29,C  27,N   8)   -174.7699         0.023353   
    233. D(N   9,C  29,C  27,C  30)    176.2398         0.023353   
    234. D(N   9,C  29,C  27,N   8)      3.1625         0.023353   
    235. D(C  27,C  29,N  11,C  31)      2.7484         0.028560   
    236. D(N   9,C  29,N  11,C  31)   -175.2331         0.028560   
    237. D(C  27,C  29,N   9,C  28)     -4.7035         0.031848   
    238. D(N  11,C  29,C  27,C  30)     -1.6926         0.023353   
    239. D(N  11,C  29,N   9,C  28)    173.3127         0.031848   
    240. D(N  10,C  30,C  27,N   8)    174.2688         0.016952   
    241. D(O   5,C  30,C  27,C  29)   -176.2166         0.016952   
    242. D(O   5,C  30,C  27,N   8)     -2.9151         0.016952   
    243. D(C  27,C  30,N  10,H  47)   -170.4378         0.028976   
    244. D(C  27,C  30,N  10,C  31)     -1.4518         0.028976   
    245. D(O   5,C  30,N  10,H  47)      6.9203         0.028976   
    246. D(N  10,C  30,C  27,C  29)      0.9673         0.016952   
    247. D(O   5,C  30,N  10,C  31)    175.9063         0.028976   
    248. D(N  11,C  31,N  12,H  50)    -14.4551         0.033610   
    249. D(N  11,C  31,N  12,H  49)   -161.2267         0.033610   
    250. D(N  10,C  31,N  12,H  50)    167.2949         0.033610   
    251. D(N  10,C  31,N  12,H  49)     20.5233         0.033610   
    252. D(N  12,C  31,N  11,C  29)    178.6187         0.046792   
    253. D(N  10,C  31,N  11,C  29)     -3.2846         0.046792   
    254. D(N  12,C  31,N  10,H  47)    -10.4211         0.030152   
    255. D(N  12,C  31,N  10,C  30)   -179.0307         0.030152   
    256. D(N  11,C  31,N  10,H  47)    171.4125         0.030152   
    257. D(N  11,C  31,N  10,C  30)      2.8029         0.030152   
    -----------------------------------------------------------------

Number of atoms                         .... 51
Number of degrees of freedom            .... 257


         *************************************************************
         *                GEOMETRY OPTIMIZATION CYCLE   1            *
         *************************************************************
---------------------------------
CARTESIAN COORDINATES (ANGSTROEM)
---------------------------------
  O     -0.097156    4.352447   -4.963758
  O     -0.516306    1.940395   -5.737246
  O     -1.161518    5.503525   -3.385892
  O     -3.760995    1.134723   -2.250656
  O     -5.277219    0.802223   -3.852953
  O     -3.453812   -1.413038   -2.162012
  N     -1.478628    2.136993   -3.717790
  N      1.122236   -3.785538   -3.524105
  N     -1.863714   -3.643968   -2.817759
  N     -2.693905   -5.183810   -4.987901
  N     -4.830119   -1.943136   -3.875865
  N     -4.523523   -3.794996   -5.298830
  N     -6.250492   -2.323997   -5.649502
  C     -2.121862    3.400872   -4.070517
  C     -3.246616    3.738984   -3.090293
  C     -4.571065    3.041585   -3.409746
  C     -0.754580    1.451477   -4.624735
  C     -0.251831    0.115804   -4.244386
  C     -1.060307    4.539414   -4.092696
  C      0.682532   -2.478939   -3.726184
  C      0.283725   -4.691728   -2.724917
  C     -0.423360   -0.466502   -2.984707
  C      0.444196   -0.605800   -5.223314
  C      0.050231   -1.737733   -2.721956
  C      0.903658   -1.881706   -4.973095
  C     -4.565689    1.541735   -3.200914
  C     -1.114272   -4.627427   -3.286214
  C     -3.006605   -3.373496   -3.459304
  C     -1.556863   -5.411529   -4.364187
  C     -3.418859   -4.125865   -4.576889
  C     -3.746897   -2.187059   -3.071365
  C     -5.161486   -2.718056   -4.951027
  H     -2.508570    3.306783   -5.096327
  H     -2.932256    3.498274   -2.071393
  H     -3.409942    4.819588   -3.132166
  H     -4.887708    3.241335   -4.436283
  H     -5.346890    3.435601   -2.745304
  H     -1.683650    1.756760   -2.807443
  H      0.290179   -4.369803   -1.681327
  H      0.717834   -5.691088   -2.799038
  H     -0.941483    0.063068   -2.192936
  H      0.598204   -0.151993   -6.196136
  H      1.386842   -4.223257   -4.401323
  H     -0.104258   -2.165864   -1.740200
  H      1.419718   -2.437506   -5.748776
  H     -0.958800   -6.245712   -4.720306
  H     -0.185312    3.462718   -5.435082
  H     -5.293719   -1.042822   -3.741149
  H     -3.742340    0.116262   -2.171370
  H     -6.552591   -1.369229   -5.558457
  H     -6.374475   -2.769460   -6.542540

----------------------------
CARTESIAN COORDINATES (A.U.)
----------------------------
  NO LB      ZA    FRAG     MASS         X           Y           Z
   0 O     8.0000    0    15.999   -0.183599    8.224933   -9.380143
   1 O     8.0000    0    15.999   -0.975677    3.666816  -10.841823
   2 O     8.0000    0    15.999   -2.194951   10.400155   -6.398408
   3 O     8.0000    0    15.999   -7.107250    2.144315   -4.253124
   4 O     8.0000    0    15.999   -9.972499    1.515982   -7.281026
   5 O     8.0000    0    15.999   -6.526759   -2.670256   -4.085610
   6 N     7.0000    0    14.007   -2.794203    4.038332   -7.025605
   7 N     7.0000    0    14.007    2.120718   -7.153631   -6.659593
   8 N     7.0000    0    14.007   -3.521908   -6.886102   -5.324793
   9 N     7.0000    0    14.007   -5.090743   -9.795981   -9.425767
  10 N     7.0000    0    14.007   -9.127602   -3.671994   -7.324323
  11 N     7.0000    0    14.007   -8.548219   -7.171502  -10.013338
  12 N     7.0000    0    14.007  -11.811718   -4.391718  -10.676011
  13 C     6.0000    0    12.011   -4.009739    6.426717   -7.692161
  14 C     6.0000    0    12.011   -6.135216    7.065656   -5.839807
  15 C     6.0000    0    12.011   -8.638062    5.747762   -6.443487
  16 C     6.0000    0    12.011   -1.425950    2.742894   -8.739483
  17 C     6.0000    0    12.011   -0.475892    0.218838   -8.020727
  18 C     6.0000    0    12.011   -2.003691    8.578248   -7.734074
  19 C     6.0000    0    12.011    1.289799   -4.684517   -7.041468
  20 C     6.0000    0    12.011    0.536163   -8.866082   -5.149347
  21 C     6.0000    0    12.011   -0.800035   -0.881561   -5.640279
  22 C     6.0000    0    12.011    0.839409   -1.144796   -9.870633
  23 C     6.0000    0    12.011    0.094922   -3.283840   -5.143751
  24 C     6.0000    0    12.011    1.707666   -3.555910   -9.397787
  25 C     6.0000    0    12.011   -8.627903    2.913457   -6.048851
  26 C     6.0000    0    12.011   -2.105668   -8.744570   -6.210044
  27 C     6.0000    0    12.011   -5.681660   -6.374983   -6.537138
  28 C     6.0000    0    12.011   -2.942044  -10.226308   -8.247119
  29 C     6.0000    0    12.011   -6.460707   -7.796755   -8.649066
  30 C     6.0000    0    12.011   -7.080608   -4.132943   -5.804038
  31 C     6.0000    0    12.011   -9.753794   -5.136382   -9.356085
  32 H     1.0000    0     1.008   -4.740510    6.248914   -9.630663
  33 H     1.0000    0     1.008   -5.541160    6.610779   -3.914366
  34 H     1.0000    0     1.008   -6.443857    9.107701   -5.918937
  35 H     1.0000    0     1.008   -9.236429    6.125235   -8.383361
  36 H     1.0000    0     1.008  -10.104159    6.492344   -5.187872
  37 H     1.0000    0     1.008   -3.181638    3.319796   -5.305298
  38 H     1.0000    0     1.008    0.548360   -8.257731   -3.177248
  39 H     1.0000    0     1.008    1.356509  -10.754598   -5.289414
  40 H     1.0000    0     1.008   -1.779145    0.119181   -4.144049
  41 H     1.0000    0     1.008    1.130441   -0.287225  -11.709001
  42 H     1.0000    0     1.008    2.620752   -7.980800   -8.317295
  43 H     1.0000    0     1.008   -0.197019   -4.092889   -3.288502
  44 H     1.0000    0     1.008    2.682878   -4.606218  -10.863613
  45 H     1.0000    0     1.008   -1.811869  -11.802685   -8.920085
  46 H     1.0000    0     1.008   -0.350190    6.543590  -10.270817
  47 H     1.0000    0     1.008  -10.003680   -1.970648   -7.069747
  48 H     1.0000    0     1.008   -7.071998    0.219704   -4.103295
  49 H     1.0000    0     1.008  -12.382602   -2.587468  -10.503962
  50 H     1.0000    0     1.008  -12.046011   -5.233522  -12.363609

--------------------------------
INTERNAL COORDINATES (ANGSTROEM)
--------------------------------
 O      0   0   0     0.000000000000     0.00000000     0.00000000
 O      1   0   0     2.567481907317     0.00000000     0.00000000
 O      1   2   0     2.224299761735   128.44495605     0.00000000
 O      2   1   3     4.830467389650    92.80305631   353.69643351
 O      4   2   1     2.230884906354    87.87814058   118.03744278
 O      4   2   1     2.567743178451    96.31830620   205.39128889
 N      2   1   3     2.245643755411    73.54831903   341.47053996
 N      6   4   2     5.331441307758   122.37103020    27.34762480
 N      6   4   2     2.816995816158   147.70217472    16.90917893
 N      9   6   4     2.787444401837   116.78256546   257.31739844
 N      6   4   2     2.261087190295    97.67959505   276.63655074
 N     10   9   6     2.317969131271    90.48897109   359.55977645
 N     12  10   9     2.295480365323   176.63345640    70.58539450
 C      7   2   1     1.461354140142    92.70996266    46.90162336
 C     14   7   2     1.529781004569   111.10742433   163.52727367
 C     15  14   7     1.530549419063   113.68989441   277.22901076
 C      2   1   3     1.238343653032    97.56648110   321.41877244
 C     17   2   1     1.476971481474   121.52706822   219.96882675
 C      3   1   2     1.199719349382    29.05393603   350.52120313
 C      8   6   4     1.393332513045    49.37458912   347.00091170
 C      8   6   4     1.470707785947    69.26794815   162.04719041
 C     18  17   2     1.398317669308   124.52919147   176.51787292
 C     18  17   2     1.401237532541   117.05737334   356.57154348
 C     22  18  17     1.381794526074   120.82175817   178.32673356
 C     23  18  17     1.379003886109   121.01162733   182.55251641
 C      5   4   2     1.215856303107    29.12454853   286.70422267
 C      9   6   4     1.322234578234   172.50452271   309.66073683
 C      9   6   4     1.338258791480    57.95881687   253.42647041
 C     10   9   6     1.316715935115    57.96481989   174.39158274
 C     10   9   6     1.346749788639    59.25386458   357.74841235
 C      6   4   2     1.229605248274   124.78807203   293.95998275
 C     12  10   9     1.299139352247   148.03493157     5.02117153
 H     14   7   2     1.100310533410   107.80434324    41.73258424
 H     15  14   7     1.093124263961   109.70287667    40.94345214
 H     15  14   7     1.093678381640   107.67652527   157.32464724
 H     16  15  14     1.092675856982   111.31847501   305.43382513
 H     16  15  14     1.094822877142   108.81738283   187.26362813
 H      7   2   1     1.007642332238   150.06604149   221.03787951
 H     21   8   6     1.092134648689   109.52735823   286.60537947
 H     21   8   6     1.092091735853   107.47723460   167.83852856
 H     22  18  17     1.084341294610   120.86565484   359.05481599
 H     23  18  17     1.084454867423   118.79935252     1.16612301
 H      8   6   4     1.015443862282   129.50832717   262.19957257
 H     24  22  18     1.082130525083   119.18062013   180.49854425
 H     25  23  18     1.084856304577   120.18400652   178.49772015
 H     29  10   9     1.086443930615   116.92881236   178.75169695
 H      1   2   3     1.010710115914    10.96725092   205.74179106
 H     11   6   4     1.021585897541    88.26141422   338.25919969
 H      4   2   1     1.021711983316   102.12274355   202.85811032
 H     13  12  32     1.005552281100   145.15016248    29.77324600
 H     13  12  32     1.005647233227    86.82143261   166.94708639

---------------------------
INTERNAL COORDINATES (A.U.)
---------------------------
 O      0   0   0     0.000000000000     0.00000000     0.00000000
 O      1   0   0     4.851837658627     0.00000000     0.00000000
 O      1   2   0     4.203317389425   128.44495605     0.00000000
 O      2   1   3     9.128260465276    92.80305631   353.69643351
 O      4   2   1     4.215761509307    87.87814058   118.03744278
 O      4   2   1     4.852331389518    96.31830620   205.39128889
 N      2   1   3     4.243651692078    73.54831903   341.47053996
 N      6   4   2    10.074963970738   122.37103020    27.34762480
 N      6   4   2     5.323350612941   147.70217472    16.90917893
 N      9   6   4     5.267506533003   116.78256546   257.31739844
 N      6   4   2     4.272835554574    97.67959505   276.63655074
 N     10   9   6     4.380326844985    90.48897109   359.55977645
 N     12  10   9     4.337829236255   176.63345640    70.58539450
 C      7   2   1     2.761559109540    92.70996266    46.90162336
 C     14   7   2     2.890867143510   111.10742433   163.52727367
 C     15  14   7     2.892319236462   113.68989441   277.22901076
 C      2   1   3     2.340130363911    97.56648110   321.41877244
 C     17   2   1     2.791071607597   121.52706822   219.96882675
 C      3   1   2     2.267141007899    29.05393603   350.52120313
 C      8   6   4     2.633016863143    49.37458912   347.00091170
 C      8   6   4     2.779234938465    69.26794815   162.04719041
 C     18  17   2     2.642437443214   124.52919147   176.51787292
 C     18  17   2     2.647955185073   117.05737334   356.57154348
 C     22  18  17     2.611213227632   120.82175817   178.32673356
 C     23  18  17     2.605939682360   121.01162733   182.55251641
 C      5   4   2     2.297635431075    29.12454853   286.70422267
 C      9   6   4     2.498661237663   172.50452271   309.66073683
 C      9   6   4     2.528942612210    57.95881687   253.42647041
 C     10   9   6     2.488232513537    57.96481989   174.39158274
 C     10   9   6     2.544988271445    59.25386458   357.74841235
 C      6   4   2     2.323617172070   124.78807203   293.95998275
 C     12  10   9     2.455017585548   148.03493157     5.02117153
 H     14   7   2     2.079285570413   107.80434324    41.73258424
 H     15  14   7     2.065705489231   109.70287667    40.94345214
 H     15  14   7     2.066752619889   107.67652527   157.32464724
 H     16  15  14     2.064858122844   111.31847501   305.43382513
 H     16  15  14     2.068915402951   108.81738283   187.26362813
 H      7   2   1     1.904168048875   150.06604149   221.03787951
 H     21   8   6     2.063835387388   109.52735823   286.60537947
 H     21   8   6     2.063754293881   107.47723460   167.83852856
 H     22  18  17     2.049108082515   120.86565484   359.05481599
 H     23  18  17     2.049322704027   118.79935252     1.16612301
 H      8   6   4     1.918910804085   129.50832717   262.19957257
 H     24  22  18     2.044930333563   119.18062013   180.49854425
 H     25  23  18     2.050081310308   120.18400652   178.49772015
 H     29  10   9     2.053081488722   116.92881236   178.75169695
 H      1   2   3     1.909965319861    10.96725092   205.74179106
 H     11   6   4     1.930517568629    88.26141422   338.25919969
 H      4   2   1     1.930755836213   102.12274355   202.85811032
 H     13  12  32     1.900218424619   145.15016248    29.77324600
 H     13  12  32     1.900397858134    86.82143261   166.94708639

---------------------
BASIS SET INFORMATION
---------------------
There are 4 groups of distinct atoms

 Group   1 Type O   : 11s6p2d contracted to 5s3p2d pattern {62111/411/11}
 Group   2 Type N   : 11s6p1d contracted to 5s3p1d pattern {62111/411/1}
 Group   3 Type C   : 11s6p1d contracted to 5s3p1d pattern {62111/411/1}
 Group   4 Type H   : 5s contracted to 3s pattern {311}

Atom   0O    basis set group =>   1
Atom   1O    basis set group =>   1
Atom   2O    basis set group =>   1
Atom   3O    basis set group =>   1
Atom   4O    basis set group =>   1
Atom   5O    basis set group =>   1
Atom   6N    basis set group =>   2
Atom   7N    basis set group =>   2
Atom   8N    basis set group =>   2
Atom   9N    basis set group =>   2
Atom  10N    basis set group =>   2
Atom  11N    basis set group =>   2
Atom  12N    basis set group =>   2
Atom  13C    basis set group =>   3
Atom  14C    basis set group =>   3
Atom  15C    basis set group =>   3
Atom  16C    basis set group =>   3
Atom  17C    basis set group =>   3
Atom  18C    basis set group =>   3
Atom  19C    basis set group =>   3
Atom  20C    basis set group =>   3
Atom  21C    basis set group =>   3
Atom  22C    basis set group =>   3
Atom  23C    basis set group =>   3
Atom  24C    basis set group =>   3
Atom  25C    basis set group =>   3
Atom  26C    basis set group =>   3
Atom  27C    basis set group =>   3
Atom  28C    basis set group =>   3
Atom  29C    basis set group =>   3
Atom  30C    basis set group =>   3
Atom  31C    basis set group =>   3
Atom  32H    basis set group =>   4
Atom  33H    basis set group =>   4
Atom  34H    basis set group =>   4
Atom  35H    basis set group =>   4
Atom  36H    basis set group =>   4
Atom  37H    basis set group =>   4
Atom  38H    basis set group =>   4
Atom  39H    basis set group =>   4
Atom  40H    basis set group =>   4
Atom  41H    basis set group =>   4
Atom  42H    basis set group =>   4
Atom  43H    basis set group =>   4
Atom  44H    basis set group =>   4
Atom  45H    basis set group =>   4
Atom  46H    basis set group =>   4
Atom  47H    basis set group =>   4
Atom  48H    basis set group =>   4
Atom  49H    basis set group =>   4
Atom  50H    basis set group =>   4
---------------------------------
AUXILIARY/J BASIS SET INFORMATION
---------------------------------
There are 4 groups of distinct atoms

 Group   1 Type O   : 8s3p3d contracted to 6s3p3d pattern {311111/111/111}
 Group   2 Type N   : 8s3p3d contracted to 6s3p3d pattern {311111/111/111}
 Group   3 Type C   : 8s3p3d contracted to 6s3p3d pattern {311111/111/111}
 Group   4 Type H   : 5s2p contracted to 3s1p pattern {311/2}

Atom   0O    basis set group =>   1
Atom   1O    basis set group =>   1
Atom   2O    basis set group =>   1
Atom   3O    basis set group =>   1
Atom   4O    basis set group =>   1
Atom   5O    basis set group =>   1
Atom   6N    basis set group =>   2
Atom   7N    basis set group =>   2
Atom   8N    basis set group =>   2
Atom   9N    basis set group =>   2
Atom  10N    basis set group =>   2
Atom  11N    basis set group =>   2
Atom  12N    basis set group =>   2
Atom  13C    basis set group =>   3
Atom  14C    basis set group =>   3
Atom  15C    basis set group =>   3
Atom  16C    basis set group =>   3
Atom  17C    basis set group =>   3
Atom  18C    basis set group =>   3
Atom  19C    basis set group =>   3
Atom  20C    basis set group =>   3
Atom  21C    basis set group =>   3
Atom  22C    basis set group =>   3
Atom  23C    basis set group =>   3
Atom  24C    basis set group =>   3
Atom  25C    basis set group =>   3
Atom  26C    basis set group =>   3
Atom  27C    basis set group =>   3
Atom  28C    basis set group =>   3
Atom  29C    basis set group =>   3
Atom  30C    basis set group =>   3
Atom  31C    basis set group =>   3
Atom  32H    basis set group =>   4
Atom  33H    basis set group =>   4
Atom  34H    basis set group =>   4
Atom  35H    basis set group =>   4
Atom  36H    basis set group =>   4
Atom  37H    basis set group =>   4
Atom  38H    basis set group =>   4
Atom  39H    basis set group =>   4
Atom  40H    basis set group =>   4
Atom  41H    basis set group =>   4
Atom  42H    basis set group =>   4
Atom  43H    basis set group =>   4
Atom  44H    basis set group =>   4
Atom  45H    basis set group =>   4
Atom  46H    basis set group =>   4
Atom  47H    basis set group =>   4
Atom  48H    basis set group =>   4
Atom  49H    basis set group =>   4
Atom  50H    basis set group =>   4


           ************************************************************
           *        Program running with 16 parallel MPI-processes    *
           *              working on a common directory               *
           ************************************************************
------------------------------------------------------------------------------
                             ORCA STARTUP CALCULATIONS
                           -- RI-GTO INTEGRALS CHOSEN --
------------------------------------------------------------------------------
------------------------------------------------------------------------------
                   ___                                                        
                  /   \      - P O W E R E D   B Y -                         
                 /     \                                                     
                 |  |  |   _    _      __       _____    __    __             
                 |  |  |  | |  | |    /  \     |  _  \  |  |  /  |          
                  \  \/   | |  | |   /    \    | | | |  |  | /  /          
                 / \  \   | |__| |  /  /\  \   | |_| |  |  |/  /          
                |  |  |   |  __  | /  /__\  \  |    /   |      \           
                |  |  |   | |  | | |   __   |  |    \   |  |\   \          
                \     /   | |  | | |  |  |  |  | |\  \  |  | \   \       
                 \___/    |_|  |_| |__|  |__|  |_| \__\ |__|  \__/        
                                                                              
                      - O R C A' S   B I G   F R I E N D -                    
                                      &                                       
                       - I N T E G R A L  F E E D E R -                       
                                                                              
 v1 FN, 2020, v2 2021, v3 2022-2024                                           
------------------------------------------------------------------------------


----------------------
SHARK INTEGRAL PACKAGE
----------------------

Number of atoms                             ...     51
Number of basis functions                   ...    695
Number of shells                            ...    351
Maximum angular momentum                    ...      2
Integral batch strategy                     ... SHARK/LIBINT Hybrid
RI-J (if used) integral strategy            ... SPLIT-RIJ (Revised 2003 algorithm where possible)
Printlevel                                  ...      1
Contraction scheme used                     ... SEGMENTED contraction
Prescreening option                         ... SCHWARTZ
   Thresh                                   ... 2.500e-11
   Tcut                                     ... 2.500e-12
   Tpresel                                  ... 2.500e-12 
Coulomb Range Separation                    ... NOT USED
Exchange Range Separation                   ... NOT USED
Multipole approximations                    ... NOT USED
Finite Nucleus Model                        ... NOT USED
CABS basis                                  ... NOT available
Auxiliary Coulomb fitting basis             ... AVAILABLE
   # of basis functions in Aux-J            ...   1074
   # of shells in Aux-J                     ...    460
   Maximum angular momentum in Aux-J        ...      2
Auxiliary J/K fitting basis                 ... NOT available
Auxiliary Correlation fitting basis         ... NOT available
Auxiliary 'external' fitting basis          ... NOT available

Checking pre-screening integrals            ... done (  0.0 sec) Dimension = 351
Check shell pair data                       ... done (  0.0 sec)
Shell pair information
Shell pair cut-off parameter TPreSel        ...   2.5e-12
Total number of shell pairs                 ...     61776
Shell pairs after pre-screening             ...     41214
Total number of primitive shell pairs       ...    230264
Primitive shell pairs kept                  ...     92238
          la=0 lb=0:  14496 shell pairs
          la=1 lb=0:  14905 shell pairs
          la=1 lb=1:   3756 shell pairs
          la=2 lb=0:   4988 shell pairs
          la=2 lb=1:   2622 shell pairs
          la=2 lb=2:    447 shell pairs

Calculating one electron integrals          ... done (  0.0 sec)
Calculating RI/J V-Matrix + Cholesky decomp.... done (  0.0 sec)
Calculating Nuclear repulsion               ... done (  0.0 sec) ENN=   3378.310250128947 Eh

Diagonalization of the overlap matrix:
Smallest eigenvalue                        ... 7.209e-06
Time for diagonalization                   ...    0.054 sec
Threshold for overlap eigenvalues          ... 1.000e-07
Number of eigenvalues below threshold      ... 0
Time for construction of square roots      ...    0.033 sec
Total time needed                          ...    0.095 sec

-------------------
DFT GRID GENERATION
-------------------

General Integration Accuracy     IntAcc      ... 4.959
Radial Grid Type                 RadialGrid  ... OptM3 with GC (2021)
Angular Grid (max. ang.)         AngularGrid ... 6 (Lebedev-590)
Angular grid pruning method      GridPruning ... 4 (adaptive)
Weight generation scheme         WeightScheme... mBecke (2022)
Basis function cutoff            BFCut       ... 1.0000e-11
Integration weight cutoff        WCut        ... 1.0000e-14
Partially contracted basis set               ... off
Rotationally invariant grid construction     ... off
Angular grids for H and He will be reduced by one unit
Diffuse basis detected: some atoms will have their outermost
                        angular grid increased by 1.

Total number of grid points                  ...   615773
Total number of batches                      ...     9648
Average number of points per batch           ...       63
Average number of grid points per atom       ...    12074
Initializing property integral containers    ... done (  0.0 sec)

SHARK setup successfully completed in   5.4 seconds

Maximum memory used throughout the entire STARTUP-calculation: 156.5 MB


           ************************************************************
           *        Program running with 16 parallel MPI-processes    *
           *              working on a common directory               *
           ************************************************************
-------------------------------------------------------------------------------
                                 ORCA GUESS
                   Start orbitals & Density for SCF / CASSCF
-------------------------------------------------------------------------------

------------
SCF SETTINGS
------------
Hamiltonian:
 Density Functional     Method          .... DFT(GTOs)
 Exchange Functional    Exchange        .... B973C
 Correlation Functional Correlation     .... B973C
 Gradients option       PostSCFGGA      .... off
 RI-approximation to the Coulomb term is turned on
   Number of AuxJ basis functions       .... 1074


General Settings:
 Integral files         IntName         .... m1_00_Vitamin_B9-GFN1_00003-B97-3C-TZ
 Hartree-Fock type      HFTyp           .... RHF
 Total Charge           Charge          ....    0
 Multiplicity           Mult            ....    1
 Number of Electrons    NEL             ....  230
 Basis Dimension        Dim             ....  695
 Nuclear Repulsion      ENuc            ....   3378.3102501289 Eh

Convergence Acceleration:
 AO-DIIS                CNVDIIS         .... on
   Start iteration      DIISMaxIt       ....    12
   Startup error        DIISStart       ....  0.200000
   # of expansion vecs  DIISMaxEq       ....     5
   Bias factor          DIISBfac        ....   1.050
   Max. coefficient     DIISMaxC        ....  10.000
 MO-DIIS                CNVKDIIS        .... off
 Trust-Rad. Augm. Hess. CNVTRAH         .... off
 SOSCF                  CNVSOSCF        .... on
   Start iteration      SOSCFMaxIt      ....   150
   Startup grad/error   SOSCFStart      ....  0.003300
   Hessian update       SOSCFHessUp     .... L-BFGS
 Level Shifting         CNVShift        .... on
   Level shift para.    LevelShift      ....    0.2500
   Turn off err/grad.   ShiftErr        ....    0.0010
 Zerner damping         CNVZerner       .... off
 Static damping         CNVDamp         .... on
   Fraction old density DampFac         ....    0.7000
   Max. Damping (<1)    DampMax         ....    0.9800
   Min. Damping (>=0)   DampMin         ....    0.0000
   Turn off err/grad.   DampErr         ....    0.1000

SCF Procedure:
 Maximum # iterations   MaxIter         ....   800
 SCF integral mode      SCFMode         .... Direct
   Integral package                     .... SHARK and LIBINT hybrid scheme
 Reset frequency        DirectResetFreq ....    20
 Integral Threshold     Thresh          ....  2.500e-11 Eh
 Primitive CutOff       TCut            ....  2.500e-12 Eh

Convergence Tolerance:
 Convergence Check Mode ConvCheckMode   .... Total+1el-Energy
 Convergence forced     ConvForced      .... 0
 Energy Change          TolE            ....  1.000e-08 Eh
 1-El. energy change                    ....  1.000e-05 Eh
 Orbital Gradient       TolG            ....  1.000e-05
 Orbital Rotation angle TolX            ....  1.000e-05
 DIIS Error             TolErr          ....  5.000e-07

--------------------------------
INITIAL GUESS: MINIMAL BASIS EHT
--------------------------------
The minimal basis has 179 functions
EHT matrix was diagonalized
Basis set overlap was calculated now projecting the orbitals
Using GuessMode=FMatrix for the initial guess
C*T matrix was formed
Effective Fockian was calculated
Effective Fockian was diagonalized
Initial density was built
                      ------------------
                      INITIAL GUESS DONE
                      ------------------
             **** ENERGY FILE WAS UPDATED (m1_00_Vitamin_B9-GFN1_00003-B97-3C-TZ.en.tmp) ****
Finished Guess after   0.5 sec
Maximum memory used throughout the entire GUESS-calculation: 72.9 MB


           ************************************************************
           *        Program running with 16 parallel MPI-processes    *
           *              working on a common directory               *
           ************************************************************

-------------------------------------------------------------------------------------------
                                      ORCA LEAN-SCF
                              memory conserving SCF solver
-------------------------------------------------------------------------------------------

----------------------------------------D-I-I-S--------------------------------------------
Iteration    Energy (Eh)           Delta-E    RMSDP     MaxDP     DIISErr   Damp  Time(sec)
-------------------------------------------------------------------------------------------
               ***  Starting incremental Fock matrix formation  ***
    1    -1563.4267855907924059     0.00e+00  6.25e-03  6.14e-01  4.67e-01  0.700   1.7
Warning: op=0 Small HOMO/LUMO gap (   0.027) - skipping pre-diagonalization
         Will do a full diagonalization
    2    -1565.5819989436872675    -2.16e+00  4.40e-03  3.57e-01  3.31e-01  0.700   1.9
    3    -1566.6450619010934133    -1.06e+00  2.28e-03  8.81e-02  2.41e-01  0.700   1.6
                               ***Turning on AO-DIIS***
    4    -1567.3876564797878927    -7.43e-01  1.87e-03  1.54e-01  1.71e-01  0.700   1.6
    5    -1567.9117536529070094    -5.24e-01  1.28e-03  1.04e-01  1.16e-01  0.700   1.6
    6    -1568.2811797766566997    -3.69e-01  8.30e-04  5.75e-02  8.00e-02  0.700   1.6
    7    -1568.5424470418488454    -2.61e-01  1.88e-03  7.77e-02  5.57e-02  0.000   1.6
    8    -1569.1469188276282694    -6.04e-01  3.81e-04  3.66e-02  2.31e-02  0.000   1.6
    9    -1569.1517355619903356    -4.82e-03  1.46e-04  8.98e-03  1.07e-02  0.000   1.6
   10    -1569.1519821608912935    -2.47e-04  7.08e-05  6.45e-03  6.13e-03  0.000   1.5
                              *** Initializing SOSCF ***
---------------------------------------S-O-S-C-F--------------------------------------
Iteration    Energy (Eh)           Delta-E    RMSDP     MaxDP     MaxGrad    Time(sec)
--------------------------------------------------------------------------------------
   11    -1569.1522777608311117    -2.96e-04  3.57e-05  3.54e-03  1.15e-03     1.7
               *** Restarting incremental Fock matrix formation ***
   12    -1569.1522942678479922    -1.65e-05  3.54e-05  3.02e-03  1.83e-04     1.8
   13    -1569.1522893547676176     4.91e-06  1.36e-05  1.36e-03  4.45e-04     1.4
   14    -1569.1522967065934608    -7.35e-06  2.36e-05  2.45e-03  3.91e-05     1.4
   15    -1569.1522961683072026     5.38e-07  6.21e-06  6.42e-04  9.18e-05     1.4
   16    -1569.1522968220847360    -6.54e-07  2.07e-05  2.59e-03  6.62e-06     1.4
   17    -1569.1522968217427660     3.42e-10  2.44e-06  2.03e-04  1.50e-05     1.4
                 **** Energy Check signals convergence ****

               *****************************************************
               *                     SUCCESS                       *
               *           SCF CONVERGED AFTER  17 CYCLES          *
               *****************************************************

             **** ENERGY FILE WAS UPDATED (m1_00_Vitamin_B9-GFN1_00003-B97-3C-TZ.en.tmp) ****

----------------
TOTAL SCF ENERGY
----------------

Total Energy       :      -1569.15229682174277 Eh          -42698.80476 eV

Components:
Nuclear Repulsion  :       3378.31025012894725 Eh           91928.49546 eV
Electronic Energy  :      -4947.46254695069001 Eh         -134627.30022 eV
One Electron Energy:      -8861.83780276915604 Eh         -241142.86608 eV
Two Electron Energy:       3914.37525581846558 Eh          106515.56586 eV

Virial components:
Potential Energy   :      -3132.86808093875243 Eh          -85249.67449 eV
Kinetic Energy     :       1563.71578411700989 Eh           42550.86973 eV
Virial Ratio       :          2.00347666293322

DFT components:
N(Alpha)           :      114.999985565509 electrons
N(Beta)            :      114.999985565509 electrons
N(Total)           :      229.999971131017 electrons
E(XC)              :     -209.173635579603 Eh       

---------------
SCF CONVERGENCE
---------------

  Last Energy change         ...   -3.4197e-10  Tolerance :   1.0000e-08
  Last MAX-Density change    ...    2.0301e-04  Tolerance :   1.0000e-07
  Last RMS-Density change    ...    2.4415e-06  Tolerance :   5.0000e-09
  Last DIIS Error            ...    1.1507e-03  Tolerance :   5.0000e-07
  Last Orbital Gradient      ...    1.5002e-05  Tolerance :   1.0000e-05
  Last Orbital Rotation      ...    2.6974e-05  Tolerance :   1.0000e-05


----------------
ORBITAL ENERGIES
----------------

  NO   OCC          E(Eh)            E(eV) 
   0   2.0000     -18.794916      -511.4357 
   1   2.0000     -18.760774      -510.5066 
   2   2.0000     -18.757684      -510.4225 
   3   2.0000     -18.751841      -510.2635 
   4   2.0000     -18.728974      -509.6413 
   5   2.0000     -18.713299      -509.2148 
   6   2.0000     -14.065865      -382.7517 
   7   2.0000     -14.044213      -382.1625 
   8   2.0000     -14.031230      -381.8092 
   9   2.0000     -14.028872      -381.7450 
  10   2.0000     -14.018093      -381.4517 
  11   2.0000     -14.012793      -381.3075 
  12   2.0000     -13.995398      -380.8341 
  13   2.0000     -10.035807      -273.0882 
  14   2.0000     -10.034851      -273.0622 
  15   2.0000     -10.030118      -272.9334 
  16   2.0000     -10.001640      -272.1585 
  17   2.0000      -9.999652      -272.1044 
  18   2.0000      -9.987256      -271.7671 
  19   2.0000      -9.960609      -271.0420 
  20   2.0000      -9.957063      -270.9455 
  21   2.0000      -9.955366      -270.8993 
  22   2.0000      -9.954811      -270.8842 
  23   2.0000      -9.951377      -270.7907 
  24   2.0000      -9.949287      -270.7339 
  25   2.0000      -9.919989      -269.9366 
  26   2.0000      -9.913381      -269.7568 
  27   2.0000      -9.910428      -269.6764 
  28   2.0000      -9.908760      -269.6311 
  29   2.0000      -9.906605      -269.5724 
  30   2.0000      -9.905546      -269.5436 
  31   2.0000      -9.904904      -269.5262 
  32   2.0000      -1.041619       -28.3439 
  33   2.0000      -1.009886       -27.4804 
  34   2.0000      -1.006767       -27.3955 
  35   2.0000      -0.976069       -26.5602 
  36   2.0000      -0.964864       -26.2553 
  37   2.0000      -0.952583       -25.9211 
  38   2.0000      -0.933242       -25.3948 
  39   2.0000      -0.925485       -25.1837 
  40   2.0000      -0.892592       -24.2887 
  41   2.0000      -0.871083       -23.7034 
  42   2.0000      -0.870826       -23.6964 
  43   2.0000      -0.866962       -23.5912 
  44   2.0000      -0.841021       -22.8854 
  45   2.0000      -0.795846       -21.6561 
  46   2.0000      -0.751398       -20.4466 
  47   2.0000      -0.744631       -20.2624 
  48   2.0000      -0.710163       -19.3245 
  49   2.0000      -0.698323       -19.0023 
  50   2.0000      -0.681474       -18.5439 
  51   2.0000      -0.668110       -18.1802 
  52   2.0000      -0.659670       -17.9505 
  53   2.0000      -0.629923       -17.1411 
  54   2.0000      -0.607453       -16.5296 
  55   2.0000      -0.598724       -16.2921 
  56   2.0000      -0.590784       -16.0760 
  57   2.0000      -0.571960       -15.5638 
  58   2.0000      -0.568926       -15.4813 
  59   2.0000      -0.563104       -15.3228 
  60   2.0000      -0.552175       -15.0254 
  61   2.0000      -0.544472       -14.8158 
  62   2.0000      -0.539538       -14.6816 
  63   2.0000      -0.522120       -14.2076 
  64   2.0000      -0.508115       -13.8265 
  65   2.0000      -0.501208       -13.6386 
  66   2.0000      -0.491039       -13.3619 
  67   2.0000      -0.486179       -13.2296 
  68   2.0000      -0.480593       -13.0776 
  69   2.0000      -0.477662       -12.9978 
  70   2.0000      -0.467417       -12.7191 
  71   2.0000      -0.458375       -12.4730 
  72   2.0000      -0.452655       -12.3174 
  73   2.0000      -0.445820       -12.1314 
  74   2.0000      -0.443612       -12.0713 
  75   2.0000      -0.437586       -11.9073 
  76   2.0000      -0.428122       -11.6498 
  77   2.0000      -0.425756       -11.5854 
  78   2.0000      -0.418484       -11.3875 
  79   2.0000      -0.408833       -11.1249 
  80   2.0000      -0.407191       -11.0802 
  81   2.0000      -0.398953       -10.8561 
  82   2.0000      -0.392798       -10.6886 
  83   2.0000      -0.390159       -10.6168 
  84   2.0000      -0.388284       -10.5658 
  85   2.0000      -0.386632       -10.5208 
  86   2.0000      -0.384034       -10.4501 
  87   2.0000      -0.379038       -10.3141 
  88   2.0000      -0.372011       -10.1229 
  89   2.0000      -0.365093        -9.9347 
  90   2.0000      -0.360218        -9.8020 
  91   2.0000      -0.356435        -9.6991 
  92   2.0000      -0.348165        -9.4741 
  93   2.0000      -0.344574        -9.3763 
  94   2.0000      -0.336314        -9.1516 
  95   2.0000      -0.325621        -8.8606 
  96   2.0000      -0.319942        -8.7061 
  97   2.0000      -0.315347        -8.5810 
  98   2.0000      -0.311140        -8.4666 
  99   2.0000      -0.298984        -8.1358 
 100   2.0000      -0.296956        -8.0806 
 101   2.0000      -0.287324        -7.8185 
 102   2.0000      -0.281963        -7.6726 
 103   2.0000      -0.280084        -7.6215 
 104   2.0000      -0.274462        -7.4685 
 105   2.0000      -0.261989        -7.1291 
 106   2.0000      -0.260170        -7.0796 
 107   2.0000      -0.255951        -6.9648 
 108   2.0000      -0.251123        -6.8334 
 109   2.0000      -0.240163        -6.5352 
 110   2.0000      -0.235866        -6.4183 
 111   2.0000      -0.229596        -6.2476 
 112   2.0000      -0.222406        -6.0520 
 113   2.0000      -0.210533        -5.7289 
 114   2.0000      -0.193443        -5.2638 
 115   0.0000      -0.118839        -3.2338 
 116   0.0000      -0.082072        -2.2333 
 117   0.0000      -0.072498        -1.9728 
 118   0.0000      -0.049893        -1.3576 
 119   0.0000      -0.044218        -1.2032 
 120   0.0000      -0.034860        -0.9486 
 121   0.0000      -0.014514        -0.3950 
 122   0.0000      -0.000926        -0.0252 
 123   0.0000       0.003052         0.0830 
 124   0.0000       0.006886         0.1874 
 125   0.0000       0.013355         0.3634 
*Only the first 10 virtual orbitals were printed.

                    ********************************
                    * MULLIKEN POPULATION ANALYSIS *
                    ********************************

-----------------------
MULLIKEN ATOMIC CHARGES
-----------------------
   0 O :   -0.459280
   1 O :   -0.562654
   2 O :   -0.366420
   3 O :   -0.495680
   4 O :   -0.514380
   5 O :   -0.504246
   6 N :   -0.410629
   7 N :   -0.303147
   8 N :   -0.068115
   9 N :   -0.047199
  10 N :   -0.375035
  11 N :   -0.162142
  12 N :   -0.640770
  13 C :   -0.152057
  14 C :   -0.277022
  15 C :   -0.327400
  16 C :    0.294558
  17 C :   -0.010079
  18 C :    0.385670
  19 C :    0.005985
  20 C :   -0.537897
  21 C :   -0.017504
  22 C :   -0.186067
  23 C :   -0.101749
  24 C :   -0.142291
  25 C :    0.468100
  26 C :    0.225408
  27 C :    0.087411
  28 C :   -0.159219
  29 C :   -0.106438
  30 C :    0.267832
  31 C :    0.383216
  32 H :    0.188746
  33 H :    0.164116
  34 H :    0.220908
  35 H :    0.192440
  36 H :    0.200595
  37 H :    0.372676
  38 H :    0.223433
  39 H :    0.209285
  40 H :    0.133091
  41 H :    0.200917
  42 H :    0.310597
  43 H :    0.169299
  44 H :    0.174224
  45 H :    0.166089
  46 H :    0.394774
  47 H :    0.379521
  48 H :    0.393618
  49 H :    0.353366
  50 H :    0.361543
Sum of atomic charges:    0.0000000

--------------------------------
MULLIKEN REDUCED ORBITAL CHARGES
--------------------------------
  0 O s       :     3.759947  s :     3.759947
      pz      :     1.493167  p :     4.665016
      px      :     1.589793
      py      :     1.582056
      dz2     :     0.002239  d :     0.034318
      dxz     :     0.011333
      dyz     :     0.005180
      dx2y2   :     0.009060
      dxy     :     0.006507

  1 O s       :     3.857767  s :     3.857767
      pz      :     1.399307  p :     4.658734
      px      :     1.596135
      py      :     1.663292
      dz2     :     0.015101  d :     0.046152
      dxz     :     0.005750
      dyz     :     0.007666
      dx2y2   :     0.009439
      dxy     :     0.008196

  2 O s       :     3.839380  s :     3.839380
      pz      :     1.431938  p :     4.497086
      px      :     1.666542
      py      :     1.398606
      dz2     :     0.004360  d :     0.029955
      dxz     :     0.002179
      dyz     :     0.012813
      dx2y2   :     0.006795
      dxy     :     0.003807

  3 O s       :     3.758073  s :     3.758073
      pz      :     1.577308  p :     4.706454
      px      :     1.626121
      py      :     1.503025
      dz2     :     0.005451  d :     0.031153
      dxz     :     0.013119
      dyz     :     0.003071
      dx2y2   :     0.001952
      dxy     :     0.007560

  4 O s       :     3.834088  s :     3.834088
      pz      :     1.543583  p :     4.648947
      px      :     1.477448
      py      :     1.627917
      dz2     :     0.004208  d :     0.031344
      dxz     :     0.008633
      dyz     :     0.007192
      dx2y2   :     0.004612
      dxy     :     0.006700

  5 O s       :     3.844581  s :     3.844581
      pz      :     1.444944  p :     4.627076
      px      :     1.693991
      py      :     1.488141
      dz2     :     0.004319  d :     0.032588
      dxz     :     0.005664
      dyz     :     0.009798
      dx2y2   :     0.007284
      dxy     :     0.005523

  6 N s       :     3.357950  s :     3.357950
      pz      :     1.236850  p :     4.012380
      px      :     1.483877
      py      :     1.291654
      dz2     :     0.009952  d :     0.040299
      dxz     :     0.005972
      dyz     :     0.010880
      dx2y2   :     0.006322
      dxy     :     0.007172

  7 N s       :     3.391700  s :     3.391700
      pz      :     1.226252  p :     3.867828
      px      :     1.556550
      py      :     1.085026
      dz2     :     0.009768  d :     0.043619
      dxz     :     0.004554
      dyz     :     0.011324
      dx2y2   :     0.007229
      dxy     :     0.010743

  8 N s       :     3.493961  s :     3.493961
      pz      :     1.325977  p :     3.526070
      px      :     1.045369
      py      :     1.154724
      dz2     :     0.007560  d :     0.048085
      dxz     :     0.012659
      dyz     :     0.008257
      dx2y2   :     0.011413
      dxy     :     0.008194

  9 N s       :     3.505312  s :     3.505312
      pz      :     1.292886  p :     3.495726
      px      :     1.036291
      py      :     1.166549
      dz2     :     0.007502  d :     0.046160
      dxz     :     0.011518
      dyz     :     0.007374
      dx2y2   :     0.010560
      dxy     :     0.009206

 10 N s       :     3.336270  s :     3.336270
      pz      :     1.296162  p :     3.997825
[...]
114:   1456.39   0.002482   12.55  0.000532  (-0.021218  0.008758 -0.002242)
115:   1468.36   0.036720  185.57  0.007804  (-0.064129 -0.040928  0.044905)
116:   1477.64   0.003056   15.45  0.000645  (-0.021003  0.008564  0.011447)
117:   1488.69   0.017176   86.80  0.003600  ( 0.028322 -0.043601 -0.029955)
118:   1490.80   0.002363   11.94  0.000495  (-0.002252  0.012599 -0.018187)
119:   1494.69   0.025772  130.24  0.005381  (-0.068112  0.006306 -0.026489)
120:   1510.26   0.004207   21.26  0.000869  ( 0.016712  0.020295 -0.013347)
121:   1514.78   0.006861   34.67  0.001414  ( 0.019133  0.029212  0.013932)
122:   1530.05   0.029203  147.58  0.005956  ( 0.043459 -0.063680 -0.003507)
123:   1545.66   0.020791  105.07  0.004198  ( 0.023186 -0.060255 -0.005418)
124:   1555.55   0.023032  116.39  0.004621  (-0.055796  0.013908  0.036249)
125:   1576.44   0.033818  170.90  0.006694  (-0.068182  0.043053 -0.013858)
126:   1596.58   0.010801   54.58  0.002111  ( 0.014478  0.037613 -0.022064)
127:   1629.00   0.046042  232.68  0.008820  (-0.051869 -0.053378  0.057276)
128:   1633.71   0.062211  314.39  0.011883  ( 0.028239 -0.104654  0.011552)
129:   1645.56   0.011431   57.77  0.002168  (-0.028721  0.032752  0.016438)
130:   1677.89   0.116550  589.00  0.021677  (-0.120886  0.055656 -0.062973)
131:   1691.47   0.010250   51.80  0.001891  ( 0.002229  0.021023  0.038001)
132:   1718.34   0.142600  720.64  0.025897  ( 0.061407  0.114202  0.095312)
133:   1797.15   0.079545  401.99  0.013813  (-0.015855  0.098240  0.062530)
134:   2825.19   0.303359  1533.05  0.033508  ( 0.023514 -0.181529 -0.001562)
135:   2972.58   0.002353   11.89  0.000247  ( 0.006819 -0.008440  0.011370)
136:   2997.97   0.002175   10.99  0.000226  ( 0.015031  0.000281 -0.000608)
137:   3041.22   0.001066    5.39  0.000109  (-0.001661  0.007847  0.006713)
138:   3044.08   0.009840   49.73  0.001009  ( 0.013678 -0.022772  0.017410)
139:   3059.67   0.002304   11.64  0.000235  (-0.000374 -0.004783 -0.014558)
140:   3077.94   0.008351   42.20  0.000847  (-0.018271  0.022646  0.000137)
141:   3088.19   0.001758    8.88  0.000178  ( 0.006836 -0.006564  0.009372)
142:   3093.03   0.002229   11.27  0.000225  ( 0.005731 -0.010757 -0.008739)
143:   3105.79   0.183310  926.37  0.018419  (-0.001886 -0.132337 -0.030034)
144:   3116.62   0.001855    9.37  0.000186  ( 0.010307 -0.004165 -0.007881)
145:   3139.75   0.003046   15.39  0.000303  ( 0.004361 -0.014337 -0.008842)
146:   3167.71   0.000561    2.83  0.000055  ( 0.004132 -0.001640 -0.005956)
147:   3181.51   0.212312  1072.94  0.020825  ( 0.028321 -0.140738 -0.014686)
148:   3195.07   0.001414    7.14  0.000138  (-0.001545  0.009692 -0.006463)
149:   3528.23   0.002176   11.00  0.000192  (-0.009215  0.009124  0.004932)
150:   3543.87   0.018568   93.84  0.001635  ( 0.028526 -0.015556  0.024070)
151:   3565.69   0.012375   62.54  0.001083  (-0.027531 -0.003204  0.017743)
152:   3663.16   0.009563   48.33  0.000815  (-0.000579 -0.022712 -0.017278)

* The epsilon (eps) is given for a Dirac delta lineshape.
** The dipole moment derivative (T) already includes vibrational overlap.

The first frequency considered to be a vibration is 6
The total number of vibrations considered is 147


--------------------------
THERMOCHEMISTRY AT 298.15K
--------------------------

Temperature         ...   298.15 K
Pressure            ...     1.00 atm
Total Mass          ...   441.40 AMU
Quasi RRHO          ...     True
Cut-Off Frequency   ...     1.00 cm^-1

Throughout the following assumptions are being made:
  (1) The electronic state is orbitally nondegenerate
  (2) There are no thermally accessible electronically excited states
  (3) Hindered rotations indicated by low frequency modes are not
      treated as such but are treated as vibrations and this may
      cause some error
  (4) All equations used are the standard statistical mechanics
      equations for an ideal gas
  (5) All vibrations are strictly harmonic

freq.      17.24  E(vib)   ...       0.57 
freq.      32.68  E(vib)   ...       0.55 
freq.      42.13  E(vib)   ...       0.53 
freq.      54.44  E(vib)   ...       0.52 
freq.      64.64  E(vib)   ...       0.50 
freq.      72.44  E(vib)   ...       0.49 
freq.      76.94  E(vib)   ...       0.49 
freq.      84.35  E(vib)   ...       0.48 
freq.      91.20  E(vib)   ...       0.47 
freq.     113.12  E(vib)   ...       0.45 
freq.     124.46  E(vib)   ...       0.43 
freq.     126.91  E(vib)   ...       0.43 
freq.     148.42  E(vib)   ...       0.41 
freq.     160.07  E(vib)   ...       0.39 
freq.     163.55  E(vib)   ...       0.39 
freq.     173.24  E(vib)   ...       0.38 
freq.     181.49  E(vib)   ...       0.37 
freq.     195.92  E(vib)   ...       0.36 
freq.     239.41  E(vib)   ...       0.31 
freq.     253.87  E(vib)   ...       0.30 
freq.     258.28  E(vib)   ...       0.30 
freq.     280.91  E(vib)   ...       0.28 
freq.     291.89  E(vib)   ...       0.27 
freq.     310.47  E(vib)   ...       0.26 
freq.     328.74  E(vib)   ...       0.24 
freq.     351.29  E(vib)   ...       0.23 
freq.     368.61  E(vib)   ...       0.21 
freq.     375.51  E(vib)   ...       0.21 
freq.     394.12  E(vib)   ...       0.20 
freq.     398.17  E(vib)   ...       0.20 
freq.     407.40  E(vib)   ...       0.19 
freq.     412.43  E(vib)   ...       0.19 
freq.     435.88  E(vib)   ...       0.17 
freq.     445.88  E(vib)   ...       0.17 
freq.     474.01  E(vib)   ...       0.15 
freq.     485.52  E(vib)   ...       0.15 
freq.     495.10  E(vib)   ...       0.14 
freq.     497.81  E(vib)   ...       0.14 
freq.     512.16  E(vib)   ...       0.14 
freq.     515.86  E(vib)   ...       0.13 
freq.     527.38  E(vib)   ...       0.13 
freq.     541.66  E(vib)   ...       0.12 
freq.     568.94  E(vib)   ...       0.11 
freq.     584.55  E(vib)   ...       0.11 
freq.     590.12  E(vib)   ...       0.10 
freq.     606.96  E(vib)   ...       0.10 
freq.     634.96  E(vib)   ...       0.09 
freq.     638.36  E(vib)   ...       0.09 
freq.     646.09  E(vib)   ...       0.09 
freq.     652.26  E(vib)   ...       0.08 
freq.     664.93  E(vib)   ...       0.08 
freq.     669.36  E(vib)   ...       0.08 
freq.     689.62  E(vib)   ...       0.07 
freq.     712.63  E(vib)   ...       0.07 
freq.     719.71  E(vib)   ...       0.07 
freq.     745.92  E(vib)   ...       0.06 
freq.     752.85  E(vib)   ...       0.06 
freq.     759.73  E(vib)   ...       0.06 
freq.     795.14  E(vib)   ...       0.05 
freq.     803.89  E(vib)   ...       0.05 
freq.     806.28  E(vib)   ...       0.05 
freq.     822.97  E(vib)   ...       0.05 
freq.     823.58  E(vib)   ...       0.05 
freq.     828.87  E(vib)   ...       0.04 
freq.     848.81  E(vib)   ...       0.04 
freq.     873.22  E(vib)   ...       0.04 
freq.     884.83  E(vib)   ...       0.04 
freq.     909.09  E(vib)   ...       0.03 
freq.     917.93  E(vib)   ...       0.03 
freq.     931.37  E(vib)   ...       0.03 
freq.     937.43  E(vib)   ...       0.03 
freq.     940.73  E(vib)   ...       0.03 
freq.     954.18  E(vib)   ...       0.03 
freq.     956.87  E(vib)   ...       0.03 
freq.     992.31  E(vib)   ...       0.02 
freq.    1023.92  E(vib)   ...       0.02 
freq.    1024.72  E(vib)   ...       0.02 
freq.    1043.26  E(vib)   ...       0.02 
freq.    1050.63  E(vib)   ...       0.02 
freq.    1059.53  E(vib)   ...       0.02 
freq.    1084.69  E(vib)   ...       0.02 
freq.    1105.06  E(vib)   ...       0.02 
freq.    1114.93  E(vib)   ...       0.01 
freq.    1148.82  E(vib)   ...       0.01 
freq.    1155.22  E(vib)   ...       0.01 
freq.    1163.36  E(vib)   ...       0.01 
freq.    1193.26  E(vib)   ...       0.01 
freq.    1210.65  E(vib)   ...       0.01 
freq.    1219.39  E(vib)   ...       0.01 
freq.    1236.51  E(vib)   ...       0.01 
freq.    1244.22  E(vib)   ...       0.01 
freq.    1269.20  E(vib)   ...       0.01 
freq.    1275.04  E(vib)   ...       0.01 
freq.    1284.60  E(vib)   ...       0.01 
freq.    1291.04  E(vib)   ...       0.01 
freq.    1310.38  E(vib)   ...       0.01 
freq.    1326.67  E(vib)   ...       0.01 
freq.    1330.80  E(vib)   ...       0.01 
freq.    1338.49  E(vib)   ...       0.01 
freq.    1347.03  E(vib)   ...       0.01 
freq.    1349.71  E(vib)   ...       0.01 
freq.    1357.42  E(vib)   ...       0.01 
freq.    1368.62  E(vib)   ...       0.01 
freq.    1374.49  E(vib)   ...       0.01 
freq.    1378.69  E(vib)   ...       0.01 
freq.    1395.31  E(vib)   ...       0.00 
freq.    1414.23  E(vib)   ...       0.00 
freq.    1445.96  E(vib)   ...       0.00 
freq.    1456.39  E(vib)   ...       0.00 
freq.    1468.36  E(vib)   ...       0.00 
freq.    1477.64  E(vib)   ...       0.00 
freq.    1488.69  E(vib)   ...       0.00 
freq.    1490.80  E(vib)   ...       0.00 
freq.    1494.69  E(vib)   ...       0.00 
freq.    1510.26  E(vib)   ...       0.00 
freq.    1514.78  E(vib)   ...       0.00 
freq.    1530.05  E(vib)   ...       0.00 
freq.    1545.66  E(vib)   ...       0.00 
freq.    1555.55  E(vib)   ...       0.00 
freq.    1576.44  E(vib)   ...       0.00 
freq.    1596.58  E(vib)   ...       0.00 
freq.    1629.00  E(vib)   ...       0.00 
freq.    1633.71  E(vib)   ...       0.00 
freq.    1645.56  E(vib)   ...       0.00 
freq.    1677.89  E(vib)   ...       0.00 
freq.    1691.47  E(vib)   ...       0.00 
freq.    1718.34  E(vib)   ...       0.00 
freq.    1797.15  E(vib)   ...       0.00 
freq.    2825.19  E(vib)   ...       0.00 
freq.    2972.58  E(vib)   ...       0.00 
freq.    2997.97  E(vib)   ...       0.00 
freq.    3041.22  E(vib)   ...       0.00 
freq.    3044.08  E(vib)   ...       0.00 
freq.    3059.67  E(vib)   ...       0.00 
freq.    3077.94  E(vib)   ...       0.00 
freq.    3088.19  E(vib)   ...       0.00 
freq.    3093.03  E(vib)   ...       0.00 
freq.    3105.79  E(vib)   ...       0.00 
freq.    3116.62  E(vib)   ...       0.00 
freq.    3139.75  E(vib)   ...       0.00 
freq.    3167.71  E(vib)   ...       0.00 
freq.    3181.51  E(vib)   ...       0.00 
freq.    3195.07  E(vib)   ...       0.00 
freq.    3528.23  E(vib)   ...       0.00 
freq.    3543.87  E(vib)   ...       0.00 
freq.    3565.69  E(vib)   ...       0.00 
freq.    3663.16  E(vib)   ...       0.00 

------------
INNER ENERGY
------------

The inner energy is: U= E(el) + E(ZPE) + E(vib) + E(rot) + E(trans)
    E(el)   - is the total energy from the electronic structure calculation
              = E(kin-el) + E(nuc-el) + E(el-el) + E(nuc-nuc)
    E(ZPE)  - the the zero temperature vibrational energy from the frequency calculation
    E(vib)  - the the finite temperature correction to E(ZPE) due to population
              of excited vibrational states
    E(rot)  - is the rotational thermal energy
    E(trans)- is the translational thermal energy

Summary of contributions to the inner energy U:
Electronic energy                ...  -1569.49413339 Eh
Zero point energy                ...      0.38736187 Eh     243.07 kcal/mol
Thermal vibrational correction   ...      0.02446066 Eh      15.35 kcal/mol
Thermal rotational correction    ...      0.00141627 Eh       0.89 kcal/mol
Thermal translational correction ...      0.00141627 Eh       0.89 kcal/mol
-----------------------------------------------------------------------
Total thermal energy                  -1569.07947831 Eh


Summary of corrections to the electronic energy:
(perhaps to be used in another calculation)
Total thermal correction                  0.02729320 Eh      17.13 kcal/mol
Non-thermal (ZPE) correction              0.38736187 Eh     243.07 kcal/mol
-----------------------------------------------------------------------
Total correction                          0.41465507 Eh     260.20 kcal/mol


--------
ENTHALPY
--------

The enthalpy is H = U + kB*T
                kB is Boltzmann's constant
Total thermal energy              ...  -1569.07947831 Eh 
Thermal Enthalpy correction       ...      0.00094421 Eh       0.59 kcal/mol
-----------------------------------------------------------------------
Total Enthalpy                    ...  -1569.07853411 Eh


Note: Only C1 symmetry has been detected, increase convergence thresholds 
      if your molecule has a higher symmetry. Symmetry factor of 1.0 is   
      used for the rotational entropy correction. 
 

Note: Rotational entropy computed according to Herzberg 
Infrared and Raman Spectra, Chapter V,1, Van Nostrand Reinhold, 1945 
Point Group:  C1, Symmetry Number:   1  
Rotational constants in cm-1:     0.006933     0.003421     0.002614 

Vibrational entropy computed according to the QRRHO of S. Grimme
Chem.Eur.J. 2012 18 9955 using a reference frequency of 100.0 cm-1


-------
ENTROPY
-------

The entropy contributions are T*S = T*(S(el)+S(vib)+S(rot)+S(trans))
     S(el)   - electronic entropy
     S(vib)  - vibrational entropy
     S(rot)  - rotational entropy
     S(trans)- translational entropy
The entropies will be listed as multiplied by the temperature to get
units of energy

Electronic entropy                ...      0.00000000 Eh      0.00 kcal/mol
Vibrational entropy               ...      0.04303716 Eh     27.01 kcal/mol
Rotational entropy                ...      0.01734563 Eh     10.88 kcal/mol
Translational entropy             ...      0.02097411 Eh     13.16 kcal/mol
-----------------------------------------------------------------------
Final entropy term                ...      0.08135689 Eh     51.05 kcal/mol

In case the symmetry of your molecule has not been determined correctly
or in case you have a reason to use a different symmetry number we print 
out the resulting rotational entropy values for sn=1,12:

 non-linear molecules -----------------------------------
|  sn= 1 | S(rot)=       0.01734563 Eh     10.88 kcal/mol|
|  sn= 2 | S(rot)=       0.01669117 Eh     10.47 kcal/mol|
|  sn= 3 | S(rot)=       0.01630834 Eh     10.23 kcal/mol|
|  sn= 4 | S(rot)=       0.01603672 Eh     10.06 kcal/mol|
|  sn= 5 | S(rot)=       0.01582603 Eh      9.93 kcal/mol|
|  sn= 6 | S(rot)=       0.01565388 Eh      9.82 kcal/mol|
|  sn= 7 | S(rot)=       0.01550834 Eh      9.73 kcal/mol|
|  sn= 8 | S(rot)=       0.01538226 Eh      9.65 kcal/mol|
|  sn= 9 | S(rot)=       0.01527105 Eh      9.58 kcal/mol|
|  sn=10 | S(rot)=       0.01517157 Eh      9.52 kcal/mol|
|  sn=11 | S(rot)=       0.01508158 Eh      9.46 kcal/mol|
|  sn=12 | S(rot)=       0.01499943 Eh      9.41 kcal/mol|
 linear molecules ---------------------------------------
|  Dinfh | S(rot)=       0.01094065 Eh      6.87 kcal/mol|
|  Cinfv | S(rot)=       0.01159510 Eh      7.28 kcal/mol|
 --------------------------------------------------------


-------------------
GIBBS FREE ENERGY
-------------------

The Gibbs free energy is G = H - T*S

Total enthalpy                    ...  -1569.07853411 Eh 
Total entropy correction          ...     -0.08135689 Eh    -51.05 kcal/mol
-----------------------------------------------------------------------
Final Gibbs free energy         ...  -1569.15989100 Eh

For completeness - the Gibbs free energy minus the electronic energy
G-E(el)                           ...      0.33424239 Eh    209.74 kcal/mol


Maximum memory used throughout the entire PROP-calculation: 191.9 MB

--------------------------------
SUGGESTED CITATIONS FOR THIS RUN
--------------------------------

Below you find a list of papers that are relevant to this ORCA run
We neither can nor want to force you to cite these papers, but we appreciate if you do
You receive ORCA, which is the product of decades of hard work by many enthusiastic individuals, for free
The only thing we kindly ask in return is that you cite our papers,
We deeply appreciate it, if you show your appreciation for ORCA by not just citing the generic ORCA reference.

Please note that relegating all ORCA citations to the supporting information does *not* help us.
SI sections are not indexed - citations you put there will not count into any citation statistics
But we need these citations in order to attract the funding resources that allow us to do what we are doing

Therefore, if you are a happy ORCA user, please consider citing a few of the papers listed below in the main body of your paper

In addition to the list printed below, the program has created the file m1_00_Vitamin_B9-GFN1_00003-B97-3C-TZ.bibtex that contains the list in bibtex format
You can import this file easily into all common literature databanks and citation aid programs


List of essential papers. We consider these as the minimum necessary citations

  1. Neese,F.
     Software update: the ORCA program system, version 5.0
     WIRES Comput. Molec. Sci., 2022 12(1)e1606
     doi.org/10.1002/wcms.1606

List of papers to cite with high priority. The work reported in these papers was absolutely
necessary for this run to complete.
Our perspective: the developers of density functionals and basis sets usually get cited in chemistry papers
Good! But without the algorithms to do something with them, the functionals or basis sets would not do anything.
Hence, in our opinion, the algorithm design and method developments papers are equally worthy of getting cited

  1. Neese,F.
     An improvement of the resolution of the identity approximation for the formation of the Coulomb matrix
     J. Comp. Chem., 2003 24(14)1740-1747
     doi.org/10.1002/jcc.10318
  2. Bykov,D.; Petrenko,T.; Izsak,R.; Kossmann,S.; Becker,U.; Valeev,E.; Neese,F.
     Efficient implementation of the analytic second derivatives of Hartree-Fock and hybrid DFT energies: a detailed analysis of different approximations
     Molec. Phys., 2015 113 1961-1977
     doi.org/10.1080/00268976.2015.1025114
  3. Neese,F.
     The SHARK Integral Generation and Digestion System
     J. Comp. Chem., 2022  1-16
     doi.org/10.1002/jcc.26942
  4. Grimme,S.; Antony,J.; Ehrlich,S.; Krieg,H.
     A consistent and accurate ab initio parametrization of density functional dispersion correction (DFT-D) for the 94 elements H-Pu
     J. Chem. Phys., 2010 132 154104
     doi.org/10.1063/1.3382344
  5. Grimme,S.; Ehrlich,S.; Goerigk,L.
     Effect of the damping function in dispersion corrected density functional theory
     J. Comput. Chem., 2011 32(7)1456-1465
     doi.org/10.1002/jcc.21759

List of suggested additional citations. These are papers that are important in the 'surrounding' of 
of this run, or papers that preceded the highly important papers. If you like your results we are grateful for a citation.

  1. Neese,F.
     The ORCA program system
     WIRES Comput. Molec. Sci., 2012 2(1)73-78
     doi.org/10.1002/wcms.81
  2. Neese,F.
     Software update: the ORCA program system, version 4.0
     WIRES Comput. Molec. Sci., 2018 8(1)1-6
     doi.org/10.1002/wcms.1327
  3. Neese,F.; Wennmohs,F.; Becker,U.; Riplinger,C.
     The ORCA quantum chemistry program package
     J. Chem. Phys., 2020 152 Art. No. L224108
     doi.org/10.1063/5.0004608

List of optional additional citations

  1. Neese,F.
     Approximate second-order SCF convergence for spin unrestricted wavefunctions
     Chem. Phys. Lett., 2000 325(1-3)93-98
     doi.org/10.1016/s0009-2614(00)00662-x

Timings for individual modules:

Sum of individual times          ...     1532.868 sec (=  25.548 min)
Startup calculation              ...      131.237 sec (=   2.187 min)   8.6 %
SCF iterations                   ...      418.705 sec (=   6.978 min)  27.3 %
Property integrals               ...      264.157 sec (=   4.403 min)  17.2 %
SCF Response                     ...      411.381 sec (=   6.856 min)  26.8 %
Property calculations            ...       95.423 sec (=   1.590 min)   6.2 %
SCF Gradient evaluation          ...      211.613 sec (=   3.527 min)  13.8 %
Geometry relaxation              ...        0.352 sec (=   0.006 min)   0.0 %
                             ****ORCA TERMINATED NORMALLY****
TOTAL RUN TIME: 0 days 0 hours 25 minutes 37 seconds 841 msec
