
                                 *****************
                                 * O   R   C   A *
                                 *****************

                                            #,                                       
                                            ###                                      
                                            ####                                     
                                            #####                                    
                                            ######                                   
                                           ########,                                 
                                     ,,################,,,,,                         
                               ,,#################################,,                 
                          ,,##########################################,,             
                       ,#########################################, ''#####,          
                    ,#############################################,,   '####,        
                  ,##################################################,,,,####,       
                ,###########''''           ''''###############################       
              ,#####''   ,,,,##########,,,,          '''####'''          '####       
            ,##' ,,,,###########################,,,                        '##       
           ' ,,###''''                  '''############,,,                           
         ,,##''                                '''############,,,,        ,,,,,,###''
      ,#''                                            '''#######################'''  
     '                                                          ''''####''''         
             ,#######,   #######,   ,#######,      ##                                
            ,#'     '#,  ##    ##  ,#'     '#,    #''#        ,####,   ,####,        
            ##       ##  ##   ,#'  ##            #'  '#       #'       #'  '#        
            ##       ##  #######   ##           ,######,      #####,   #    #        
            '#,     ,#'  ##    ##  '#,     ,#' ,#      #,     #,   #   #,  ,#        
             '#######'   ##     ##  '#######'  #'      '#     '####' # '####'        



                #########################################################
                #                        -***-                          #
                #          Department of theory and spectroscopy        #
                #                                                       #
                #                      Frank Neese                      #
                #                                                       #
                #     Directorship, Architecture, Infrastructure        #
                #                    SHARK, DRIVERS                     #
                #        Core code/Algorithms in most modules           #
                #                                                       #
                #        Max Planck Institute fuer Kohlenforschung      #
                #                Kaiser Wilhelm Platz 1                 #
                #                 D-45470 Muelheim/Ruhr                 #
                #                      Germany                          #
                #                                                       #
                #                  All rights reserved                  #
                #                        -***-                          #
                #########################################################


                         Program Version 6.0.1  -  RELEASE   -


 With contributions from (in alphabetic order):
[Max-Planck-Institut fuer Kohlenforschung]                               
  Daniel Aravena         : Magnetic Suceptibility                        
  Michael Atanasov       : Ab Initio Ligand Field Theory (pilot matlab implementation)
  Alexander A. Auer      : GIAO ZORA, VPT2 properties, NMR spectrum      
  Ute Becker             : All parallelization in ORCA, NUMFREQ, NUMCALC 
  Giovanni Bistoni       : ED, misc. LED, open-shell LED, HFLD           
  Martin Brehm           : Molecular dynamics                            
  Dmytro Bykov           : pre 5.0 version of the SCF Hessian            
  Marcos Casanova-Páez   : Triplet and SCS-CIS(D). UHF-(DLPNO)-IP/EA/STEOM-CCSD. UHF-CVS-IP/STEOM-CCSD   
  Vijay G. Chilkuri      : MRCI spin determinant printing, contributions to CSF-ICE 
  Pauline Colinet        : FMM embedding                                 
  Dipayan Datta          : RHF DLPNO-CCSD density                        
  Achintya Kumar Dutta   : EOM-CC, STEOM-CC                              
  Nicolas Foglia         : Exact transition moments, OPA infrastructure, MCD improvements    
  Dmitry Ganyushin       : Spin-Orbit,Spin-Spin,Magnetic field MRCI      
  Miquel Garcia-Rates    : C-PCM and meta-GGA Hessian, CCSD/C-PCM, Gaussian charge scheme 
  Tiago L. C. Gouveia    : GS-ROHF, GS-ROCIS                             
  Yang Guo               : DLPNO-NEVPT2, F12-NEVPT2, CIM, IAO-localization        
  Andreas Hansen         : Spin unrestricted coupled pair/coupled cluster methods 
  Ingolf Harden          : AUTO-CI MPn and infrastructure                
  Benjamin Helmich-Paris : MC-RPA, TRAH-(SCF,CASSCF), AVAS, COSX integrals, SCF dyn. polar. 
  Lee Huntington         : MR-EOM, pCC                                   
  Robert Izsak           : Overlap fitted RIJCOSX, COSX-SCS-MP3, EOM     
  Riya Kayal             : Wick's Theorem for AUTO-CI, AUTO-CI UHF-CCSDT 
  Emily Kempfer          : AUTO-CI, RHF CISDT and CCSDT                  
  Christian Kollmar      : KDIIS, OOCD, Brueckner-CCSD(T), CCSD density, CASPT2, CASPT2-K, improved NEVPT2 
  Axel Koslowski         : Symmetry handling                             
  Simone Kossmann        : meta-GGA functionals, TD-DFT gradient, OOMP2, (MP2 Hessian; deprecated post 5.0) 
  Lucas Lang             : DCDCAS                                        
  Marvin Lechner         : AUTO-CI (C++ implementation), FIC-MRCC        
  Spencer Leger          : CASSCF response                               
  Dagmar Lenk            : GEPOL surface, SMD, ORCA-2-JSON               
  Dimitrios Liakos       : Extrapolation schemes; Compound Job, initial MDCI parallelization 
  Dimitrios Manganas     : Further ROCIS development; embedding schemes. LFT, Crystal Embedding 
  Dimitrios Pantazis     : SARC Basis sets                               
  Anastasios Papadopoulos: AUTO-CI, single reference methods and gradients 
  Taras Petrenko         : pre 6.0 DFT Hessian and TD-DFT gradient, (ASA, deprecated), ECA, 1-Electron XAS/XES, NRVS 
  Peter Pinski           : DLPNO-MP2, DLPNO-MP2 Gradient                 
  Christoph Reimann      : Effective Core Potentials                     
  Marius Retegan         : Local ZFS, SOC                                
  Christoph Riplinger    : Optimizer, TS searches, QM/MM, DLPNO-CCSD(T), (RO)-DLPNO pert. Triples 
  Michael Roemelt        : Original ROCIS implementation                 
  Masaaki Saitow         : Open-shell DLPNO-CCSD energy and density      
  Barbara Sandhoefer     : DKH picture change effects                    
  Kantharuban Sivalingam : CASSCF convergence/infrastructure, NEVPT2 and variants, FIC-MRCI 
  Bernardo de Souza      : ESD, SOC TD-DFT                               
  Georgi L. Stoychev     : AutoAux, RI-MP2 NMR, DLPNO-MP2 response, X2C  
  Van Anh Tran           : RI-MP2 g-tensors                              
  Willem Van den Heuvel  : Paramagnetic NMR                              
  Zikuan Wang            : NOTCH, Electric field optimization            
  Frank Wennmohs         : Technical directorship and infrastructure     
  Hang Xu                : AUTO-CI-Response properties                   
                                                                         
[FACCTs GmbH]                                                            
  Markus Bursch, Miquel Garcia-Rates, Christoph Riplinger, Bernardo de Souza, Georgi L. Stoychev 
                                                                 
  APM, Basis sets (HGBS, AHGBS, def-TZVP (Ac-Lr), def2-XVPD (La-Lu)), CI-OPT, improved COSX, DLPNO-Multilevel,           
  DOCKER, DRACO, updates on ESD, GOAT, IRC, LR-CPCM, MBIS, meta-GGA TD-DFT gradient, ML-optimized integration grids, 
  MM, NACMEs, nearIR, NEB, NEB-TS, NL-DFT gradient (VV10), 2- and 3-layer-ONIOM, interface openCOSMO-RS, QMMM,   
  Crystal-QMMM, SF, symmetry and pop. for TD-DFT, r2SCAN hybrids, SOLVATOR                                   
                                                                         
[Other institutions]                                                     
  V. Asgeirsson          : NEB                                           
  Christoph Bannwarth    : sTDA-DFT, sTD-DFT, PBEh-3c, B97-3c, D3        
  Sebastian Ehlert       : rSCAN, r2SCAN, r2SCAN-3c, D4, dhf basis sets  
  Marvin Friede          : D4 for Fr, Ra, Ac-Lr                          
  Lars Goerigk           : TD-DFT with DH, B97 family of functionals     
  Stefan Grimme          : VdW corrections, initial TS optimization, DFT functionals, gCP, sTDA/sTD-DF 
  Waldemar Hujo          : DFT-NL                                        
  H. Jonsson             : NEB                                           
  Holger Kruse           : gCP                                           
  Marcel Mueller         : wB97X-3c, vDZP basis set                      
  Hagen Neugebauer       : wr2SCAN                                       
  Tobias Risthaus        : range-separated hybrid DFT                    
  Lukas Wittmann         : regularized MP2, r2SCAN double-hybrids, wr2SCAN        
                                                                         
We gratefully acknowledge several colleagues who have allowed us to      
interface, adapt or use parts of their codes:                            
  Ed Valeev, F. Pavosevic, A. Kumar             : LibInt (2-el integral package), F12 methods 
  Garnet Chan, S. Sharma, J. Yang, R. Olivares  : DMRG                   
  Ulf Ekstrom                                   : XCFun DFT Library      
  Mihaly Kallay                                 : mrcc  (arbitrary order and MRCC methods)
  Frank Weinhold                                : gennbo (NPA and NBO analysis)           
  Simon Mueller                                 : openCOSMO-RS                            
  Christopher J. Cramer and Donald G. Truhlar   : smd solvation model                     
  S Lehtola, MJT Oliveira, MAL Marques          : LibXC Library                           
  Liviu Ungur et al                             : ANISO software                          


 Your calculation uses the libint2 library for the computation of 2-el integrals
 For citations please refer to: http://libint.valeyev.net

 Your ORCA version has been built with support for libXC version: 6.2.2
 For citations please refer to: https://libxc.gitlab.io

 This ORCA versions uses:
   CBLAS   interface :  Fast vector & matrix operations
   LAPACKE interface :  Fast linear algebra routines
   SCALAPACK package :  Parallel linear algebra routines
   Shared memory     :  Shared parallel matrices
   BLAS/LAPACK       :  OpenBLAS 0.3.27  USE64BITINT DYNAMIC_ARCH NO_AFFINITY Zen SINGLE_THREADED
        Core in use  :  Zen
   Copyright (c) 2011-2014, The OpenBLAS Project


NOTE: MaxCore=6000 MB was set to SCF,MP2,MDCI,CIPSI,MRCI and CIS
      => If you want to overwrite this, your respective input block should be placed after the MaxCore statement
Your calculation utilizes the atom-pairwise dispersion correction
with the Becke-Johnson damping scheme (D3BJ)


Your calculation employs the composite approach B97-3c by Grimme and coworkers.
For the correct reference, please check the publication list of the Grimme group:
http://www.thch.uni-bonn.de/tc/index.php?section=publikationen&subsection=grimme#2017
   

XCFun DFT library Copyright 2009-2010 Ulf Ekstrom and contributors.
See http://admol.org/xcfun for more information.
This is free software; see the source code for copying conditions.
There is ABSOLUTELY NO WARRANTY; not even for MERCHANTABILITY or FITNESS FOR A PARTICULAR PURPOSE.
For details see the documentation.
Scientific users of this library should cite U. Ekstrom, L. Visscher, R. Bast, A. J. Thorvaldsen and K. Ruud;
J.Chem.Theor.Comp. 2010, DOI: 10.1021/ct100117s
XCFun Version 0.99 

================================================================================

----- Orbital basis set information -----
Your calculation utilizes the basis: def2-mTZVP
----- AuxJ basis set information -----
Your calculation utilizes the basis: def2-mTZVP/J
================================================================================
                                        WARNINGS
                       Please study these warnings very carefully!
================================================================================


WARNING: Geometry Optimization
  ===> : Switching off AutoStart
         For restart on a previous wavefunction, please use MOREAD

================================================================================
                                       INPUT FILE
================================================================================
NAME = m1_00_Vitamin_B9-GFN1_00016-B97-3C-TZ.inp
|  1> %pal nprocs 16 end
|  2> %MaxCore 6000
|  3> # put your comments here
|  4> ! B97-3C  OPT  FREQ DEFGRID3 NOTRAH
|  5> %scf MaxIter 800 end
|  6> %output
|  7> Print [P_Hirshfeld] 1
|  8> end
|  9> %geom
| 10> MaxIter 3000
| 11>  TolE 1e-6 #TolE 5e-6 Energy change (a.u.)
| 12>  TolRMSG 3e-5 #TolRMSG 1e-4 RMS gradient (a.u.)
| 13>  TolMaxG 1e-4 #TolMaxG 3e-3 Max. element of gradient (a.u.)
| 14>  TolRMSD 2e-3 #TolRMSD 2e-3 RMS displacement (a.u.)
| 15>  TolMaxD 4e-3 #TolMaxD 4e-3 Max. displacement (a.u.)
| 16> end
| 17> * xyz 0 1
| 18>  O 6.53011894105643 5.31682077470638 -0.91340424725777
| 19>  O 8.69481894119784 7.15152140112414 2.50276731516065
| 20>  O 5.71368793732817 3.71133866545721 0.39503952113656
| 21>  O 4.45602942120107 8.26793988943875 1.33535194773824
| 22>  O 3.93513391158066 8.05431288227938 3.49534263609310
| 23>  O 4.84192830529430 10.78368999760474 1.78911112633991
| 24>  N 7.00428311970536 6.97159531794338 1.02273865067573
| 25>  N 8.55391255535008 13.15940514946578 0.32424585556449
| 26>  N 6.73658195097562 12.84114959889824 2.22390196213609
| 27>  N 7.05912178125473 13.70612367260208 4.85138938215744
| 28>  N 4.47003869038395 10.72701595194081 4.01658236522942
| 29>  N 5.50651301359713 12.14905524099778 5.57986596044940
| 30>  N 4.06724908299471 10.49866389346306 6.27350551424395
| 31>  C 6.70882328585904 5.62590137740219 1.44911935653877
| 32>  C 5.67623656428026 5.54214299181581 2.58664880766956
| 33>  C 4.27977772587662 6.07049521917175 2.20526800832816
| 34>  C 8.00243586311676 7.66646573771365 1.64004959575053
| 35>  C 8.18255572357677 9.07152200363444 1.19717436044726
| 36>  C 6.26086769801924 4.77524244999259 0.27537464008323
| 37>  C 8.49191151474028 11.79461817884547 0.61174017925500
| 38>  C 8.65193249878037 14.08447729528836 1.44894932888263
| 39>  C 9.04983050730660 9.87382832606613 1.94664256433848
| 40>  C 7.53008736433205 9.63991808977368 0.09952040119407
| 41>  C 9.21411322268784 11.21440948992309 1.65984544960048
| 42>  C 7.68870077390236 10.97986029711433 -0.19404605198081
| 43>  C 4.20083087974035 7.56821316561221 2.41305194035936
| 44>  C 7.67883709273661 13.70690613455717 2.54712372480928
| 45>  C 5.98558257145985 12.33879853955708 3.21148299514677
| 46>  C 7.80449644748642 14.16613233932664 3.86897430359266
| 47>  C 6.17147767010715 12.73950290738187 4.54959329815028
| 48>  C 5.06883809795582 11.25577787898890 2.90069745030054
| 49>  C 4.72460623716070 11.15423777672921 5.28783915004112
| 50>  H 7.64853050677786 5.19388030247754 1.82546270658447
| 51>  H 5.58573469010695 4.48727190285718 2.85816933446627
| 52>  H 6.05672316676351 6.08860347983669 3.45277933967594
| 53>  H 3.54103765866636 5.60767418125395 2.86271009805548
| 54>  H 4.04354491503485 5.82102503647480 1.16952575924748
| 55>  H 6.32981075521626 7.43193627947098 0.43328591034906
| 56>  H 8.44132087370208 15.08919268516574 1.06868926220248
| 57>  H 9.67226198869077 14.08533931234172 1.84537514133743
| 58>  H 9.58164988111246 9.42628180491233 2.77962698705265
| 59>  H 6.88082429654074 9.04309424784435 -0.53159221717390
| 60>  H 7.78037300273332 13.42333816356107 -0.27870146598850
| 61>  H 9.87445450755394 11.81803570755433 2.27116118884156
| 62>  H 7.15358977628567 11.41829238958157 -1.02938833354497
| 63>  H 8.54245227637353 14.92182641726779 4.12293452657922
| 64>  H 6.23620553396437 4.70932154834709 -1.61219462229883
| 65>  H 3.94646730704045 9.86195403996381 3.87358149423099
| 66>  H 4.50991541276457 9.26888428105897 1.52512633236352
| 67>  H 3.72423193293668 9.57463555217522 6.07250420801887
| 68>  H 4.41121312663885 10.67120403263142 7.20291585798166
| 69> *
| 70> 
| 71> 
| 72> 
| 73> 
| 74>                          ****END OF INPUT****
================================================================================

                       *****************************
                       * Geometry Optimization Run *
                       *****************************

Geometry optimization settings:
Update method            Update   .... BFGS
Choice of coordinates    CoordSys .... (2022) Redundant Internals
Initial Hessian          InHess   .... Almloef's Model
Max. no of cycles        MaxIter  .... 3000

Convergence Tolerances:
Energy Change            TolE     ....  1.0000e-06 Eh
Max. Gradient            TolMAXG  ....  1.0000e-04 Eh/bohr
RMS Gradient             TolRMSG  ....  3.0000e-05 Eh/bohr
Max. Displacement        TolMAXD  ....  4.0000e-03 bohr
RMS Displacement         TolRMSD  ....  2.0000e-03 bohr
Strict Convergence                .... False

------------------------------------------------------------------------------
                        ORCA OPTIMIZATION COORDINATE SETUP
------------------------------------------------------------------------------

The optimization will be done in redundant internal coordinates (2022)
Making redundant internal coordinates   ...  (2022 redundants) done
Evaluating the initial hessian          ...  (Almloef) done
Evaluating the coordinates              ...  done
Calculating the B-matrix                .... done
Calculating the G-matrix                .... done
Diagonalizing the G-matrix              .... done
Small eigenvalue found = 1.300e-03
Small eigenvalue found = 3.897e-03
Small eigenvalue found = 5.772e-03
Small eigenvalue found = 9.087e-03
Small eigenvalue found = 1.752e-02
Small eigenvalue found = 2.130e-02
Small eigenvalue found = 2.723e-02
The first mode is                       ....  109
The number of degrees of freedom        ....  147

    -----------------------------------------------------------------
                    Redundant Internal Coordinates


    -----------------------------------------------------------------
         Definition                    Initial Value    Approx d2E/dq
    -----------------------------------------------------------------
      1. B(C  13,N   6)                  1.4422         0.461920   
      2. B(C  14,C  13)                  1.5386         0.361985   
      3. B(C  15,C  14)                  1.5410         0.358769   
      4. B(C  16,O   1)                  1.2202         1.044262   
      5. B(C  16,N   6)                  1.3639         0.615906   
      6. B(C  17,C  16)                  1.4842         0.442073   
      7. B(C  18,C  13)                  1.5172         0.391530   
      8. B(C  18,O   2)                  1.2023         1.115009   
      9. B(C  18,O   0)                  1.3338         0.687944   
     10. B(C  19,N   7)                  1.3961         0.547164   
     11. B(C  20,N   7)                  1.4596         0.433403   
     12. B(C  21,C  17)                  1.3991         0.604189   
     13. B(C  22,C  17)                  1.3977         0.607316   
     14. B(C  23,C  21)                  1.3807         0.646454   
     15. B(C  23,C  19)                  1.3988         0.604841   
     16. B(C  24,C  22)                  1.3809         0.646123   
     17. B(C  24,C  19)                  1.3994         0.603630   
     18. B(C  25,C  15)                  1.5141         0.396013   
     19. B(C  25,O   4)                  1.2158         1.061093   
     20. B(C  25,O   3)                  1.3100         0.750691   
     21. B(C  26,C  20)                  1.5151         0.394625   
     22. B(C  26,N   8)                  1.3198         0.724248   
     23. B(C  27,N   8)                  1.3385         0.676062   
     24. B(C  28,C  26)                  1.4050         0.591343   
     25. B(C  28,N   9)                  1.3162         0.733922   
     26. B(C  29,C  27)                  1.4091         0.582386   
     27. B(C  29,N  11)                  1.3610         0.622550   
     28. B(C  29,N   9)                  1.3466         0.656307   
     29. B(C  30,C  27)                  1.4526         0.496503   
     30. B(C  30,N  10)                  1.3724         0.597080   
     31. B(C  30,O   5)                  1.2288         1.011674   
     32. B(C  31,N  12)                  1.3540         0.638619   
     33. B(C  31,N  11)                  1.2986         0.782933   
     34. B(C  31,N  10)                  1.3651         0.613266   
     35. B(H  32,C  13)                  1.1006         0.346344   
     36. B(H  33,C  14)                  1.0930         0.356142   
     37. B(H  34,C  14)                  1.0925         0.356799   
     38. B(H  35,C  15)                  1.0919         0.357641   
     39. B(H  36,C  15)                  1.0912         0.358464   
     40. B(H  37,O   3)                  2.2414         0.004695   
     41. B(H  37,N   6)                  1.0071         0.437318   
     42. B(H  38,C  20)                  1.0947         0.353912   
     43. B(H  39,C  20)                  1.0946         0.354020   
     44. B(H  40,C  21)                  1.0849         0.366920   
     45. B(H  41,C  22)                  1.0845         0.367509   
     46. B(H  42,N   7)                  1.0157         0.423800   
     47. B(H  43,C  23)                  1.0836         0.368708   
     48. B(H  44,C  24)                  1.0846         0.367311   
     49. B(H  45,C  28)                  1.0863         0.364966   
     50. B(H  46,O   0)                  0.9715         0.498507   
     51. B(H  47,O   4)                  1.8468         0.020003   
     52. B(H  47,N  10)                  1.0212         0.415222   
     53. B(H  48,O   4)                  2.3848         0.002772   
     54. B(H  48,O   5)                  1.5731         0.054683   
     55. B(H  48,O   3)                  1.0202         0.416794   
     56. B(H  49,N  12)                  1.0059         0.439230   
     57. B(H  50,N  12)                  1.0059         0.439235   
     58. A(C  18,O   0,H  46)          109.0333         0.374080   
     59. A(C  25,O   3,H  48)          112.4149         0.368221   
     60. A(C  13,N   6,H  37)          117.5378         0.341895   
     61. A(C  13,N   6,C  16)          119.4388         0.406061   
     62. A(C  16,N   6,H  37)          121.4764         0.358911   
     63. A(C  19,N   7,H  42)          110.0266         0.349916   
     64. A(C  20,N   7,H  42)          110.1145         0.336509   
     65. A(C  19,N   7,C  20)          117.6378         0.393261   
     66. A(C  26,N   8,C  27)          117.7790         0.447518   
     67. A(C  28,N   9,C  29)          117.1870         0.446191   
     68. A(C  31,N  10,H  47)          119.4144         0.355503   
     69. A(C  30,N  10,H  47)          115.8628         0.353894   
     70. A(C  30,N  10,C  31)          123.7302         0.424698   
     71. A(C  29,N  11,C  31)          117.1493         0.447149   
     72. A(C  31,N  12,H  50)          115.0573         0.361402   
     73. A(H  49,N  12,H  50)          117.3082         0.304714   
     74. A(C  31,N  12,H  49)          117.6993         0.361401   
     75. A(C  14,C  13,H  32)          107.3879         0.320596   
     76. A(C  18,C  13,H  32)          107.2498         0.324745   
     77. A(N   6,C  13,C  14)          114.0081         0.372457   
     78. A(C  14,C  13,C  18)          110.0775         0.364311   
     79. A(N   6,C  13,C  18)          110.7884         0.377535   
     80. A(N   6,C  13,H  32)          107.0039         0.331720   
     81. A(C  15,C  14,H  34)          109.8959         0.321689   
     82. A(H  33,C  14,H  34)          108.3386         0.289916   
     83. A(C  13,C  14,H  33)          106.9641         0.322063   
     84. A(C  13,C  14,C  15)          113.9874         0.358920   
     85. A(C  13,C  14,H  34)          108.9763         0.322160   
     86. A(C  15,C  14,H  33)          108.5024         0.321592   
     87. A(H  35,C  15,H  36)          109.1555         0.290319   
     88. A(C  14,C  15,H  36)          110.6522         0.321935   
     89. A(C  14,C  15,C  25)          110.6362         0.364465   
     90. A(C  25,C  15,H  36)          110.1878         0.327201   
     91. A(C  25,C  15,H  35)          107.5406         0.327077   
     92. A(C  14,C  15,H  35)          108.5885         0.321813   
     93. A(N   6,C  16,C  17)          115.8536         0.405529   
     94. A(O   1,C  16,C  17)          122.7954         0.445707   
     95. A(O   1,C  16,N   6)          121.3509         0.470348   
     96. A(C  21,C  17,C  22)          118.4789         0.430453   
     97. A(C  16,C  17,C  22)          124.2404         0.407143   
     98. A(C  16,C  17,C  21)          117.2742         0.406771   
     99. A(O   0,C  18,O   2)          122.6748         0.485860   
    100. A(O   2,C  18,C  13)          123.6065         0.441226   
    101. A(O   0,C  18,C  13)          113.7188         0.404757   
    102. A(C  23,C  19,C  24)          119.0965         0.430066   
    103. A(N   7,C  19,C  24)          118.4295         0.419673   
    104. A(N   7,C  19,C  23)          122.4685         0.419823   
    105. A(N   7,C  20,H  38)          107.5240         0.329418   
    106. A(N   7,C  20,C  26)          110.9439         0.373911   
    107. A(H  38,C  20,H  39)          107.7223         0.289276   
    108. A(C  26,C  20,H  39)          109.6560         0.326340   
    109. A(N   7,C  20,H  39)          110.0088         0.329434   
    110. A(C  26,C  20,H  38)          110.9118         0.326324   
    111. A(C  17,C  21,H  40)          118.5936         0.352487   
    112. A(C  23,C  21,H  40)          120.1119         0.356550   
    113. A(C  17,C  21,C  23)          121.2818         0.435314   
    114. A(C  17,C  22,C  24)          120.5268         0.435679   
    115. A(C  24,C  22,H  41)          118.6254         0.356616   
    116. A(C  17,C  22,H  41)          120.8438         0.352891   
    117. A(C  21,C  23,H  43)          119.7489         0.356845   
    118. A(C  19,C  23,H  43)          120.4167         0.352841   
    119. A(C  19,C  23,C  21)          119.7968         0.435399   
    120. A(C  19,C  24,C  22)          120.5631         0.435201   
    121. A(C  22,C  24,H  44)          119.9550         0.356584   
    122. A(C  19,C  24,H  44)          119.4268         0.352495   
    123. A(O   4,C  25,C  15)          121.9399         0.438195   
    124. A(O   3,C  25,C  15)          113.9095         0.411888   
    125. A(O   3,C  25,O   4)          124.1470         0.489263   
    126. A(C  20,C  26,C  28)          122.8911         0.397206   
    127. A(N   8,C  26,C  28)          120.5758         0.439703   
    128. A(N   8,C  26,C  20)          116.3919         0.409023   
    129. A(C  29,C  27,C  30)          119.8975         0.412531   
    130. A(N   8,C  27,C  30)          118.4284         0.420885   
    131. A(N   8,C  27,C  29)          121.3244         0.433089   
    132. A(C  26,C  28,H  45)          120.5353         0.350892   
    133. A(N   9,C  28,H  45)          116.9576         0.361751   
    134. A(N   9,C  28,C  26)          122.5043         0.440757   
    135. A(N  11,C  29,C  27)          122.0750         0.426726   
    136. A(N   9,C  29,C  27)          120.2583         0.430787   
    137. A(N   9,C  29,N  11)          117.6344         0.433130   
    138. A(N  10,C  30,C  27)          112.8724         0.411683   
    139. A(O   5,C  30,C  27)          126.6218         0.452588   
    140. A(O   5,C  30,N  10)          120.4611         0.464970   
    141. A(N  11,C  31,N  12)          119.9683         0.449221   
    142. A(N  10,C  31,N  12)          115.8397         0.429848   
    143. A(N  10,C  31,N  11)          124.1576         0.445934   
    144. D(C  14,C  13,N   6,H  37)    -77.1633         0.018217   
    145. D(C  18,C  13,N   6,C  16)   -146.3073         0.018217   
    146. D(C  18,C  13,N   6,H  37)     47.6609         0.018217   
    147. D(H  32,C  13,N   6,C  16)    -29.7059         0.018217   
    148. D(C  14,C  13,N   6,C  16)     88.8686         0.018217   
    149. D(C  15,C  14,C  13,N   6)     63.4658         0.010505   
    150. D(C  15,C  14,C  13,H  32)   -178.1789         0.010505   
    151. D(H  33,C  14,C  13,C  18)     58.1894         0.010505   
    152. D(C  15,C  14,C  13,C  18)    -61.7364         0.010505   
    153. D(H  33,C  14,C  13,N   6)   -176.6084         0.010505   
    154. D(H  33,C  14,C  13,H  32)    -58.2531         0.010505   
    155. D(H  35,C  15,C  14,C  13)    156.2668         0.010332   
    156. D(C  25,C  15,C  14,H  34)     36.7220         0.010332   
    157. D(C  25,C  15,C  14,H  33)    155.0132         0.010332   
    158. D(C  25,C  15,C  14,C  13)    -85.9308         0.010332   
    159. D(H  35,C  15,C  14,H  34)    -81.0804         0.010332   
    160. D(H  35,C  15,C  14,H  33)     37.2108         0.010332   
    161. D(C  17,C  16,N   6,H  37)    -10.8431         0.030685   
    162. D(C  17,C  16,N   6,C  13)   -176.3085         0.030685   
    163. D(O   1,C  16,N   6,H  37)    169.0530         0.030685   
    164. D(O   1,C  16,N   6,C  13)      3.5876         0.030685   
    165. D(C  22,C  17,C  16,N   6)     -8.7680         0.013332   
    166. D(C  22,C  17,C  16,O   1)    171.3375         0.013332   
    167. D(C  21,C  17,C  16,N   6)    170.2911         0.013332   
    168. D(C  21,C  17,C  16,O   1)     -9.6034         0.013332   
    169. D(O   0,C  18,C  13,H  32)   -101.3793         0.011400   
    170. D(O   0,C  18,C  13,C  14)    142.0918         0.011400   
    171. D(O   0,C  18,C  13,N   6)     15.0704         0.011400   
    172. D(C  13,C  18,O   0,H  46)    178.6219         0.035325   
    173. D(O   2,C  18,C  13,N   6)   -164.9294         0.011400   
    174. D(O   2,C  18,O   0,H  46)     -1.3783         0.035325   
    175. D(O   2,C  18,C  13,C  14)    -37.9080         0.011400   
    176. D(C  24,C  19,N   7,H  42)     16.8600         0.023849   
    177. D(C  24,C  19,N   7,C  20)    144.0194         0.023849   
    178. D(C  23,C  19,N   7,H  42)   -163.9979         0.023849   
    179. D(C  23,C  19,N   7,C  20)    -36.8385         0.023849   
    180. D(H  39,C  20,N   7,C  19)     76.7258         0.016015   
    181. D(H  38,C  20,N   7,H  42)    -39.1113         0.016015   
    182. D(H  38,C  20,N   7,C  19)   -166.2282         0.016015   
    183. D(C  26,C  20,N   7,H  42)     82.3307         0.016015   
    184. D(C  26,C  20,N   7,C  19)    -44.7862         0.016015   
    185. D(H  40,C  21,C  17,C  22)   -178.0603         0.025184   
    186. D(H  40,C  21,C  17,C  16)      2.8246         0.025184   
    187. D(C  23,C  21,C  17,C  22)      3.2352         0.025184   
    188. D(C  23,C  21,C  17,C  16)   -175.8800         0.025184   
    189. D(H  41,C  22,C  17,C  21)    177.5136         0.025460   
    190. D(H  41,C  22,C  17,C  16)     -3.4378         0.025460   
    191. D(C  24,C  22,C  17,C  21)     -3.2159         0.025460   
    192. D(C  24,C  22,C  17,C  16)    175.8328         0.025460   
    193. D(H  43,C  23,C  21,H  40)     -0.1325         0.029075   
    194. D(H  43,C  23,C  21,C  17)    178.5526         0.029075   
    195. D(C  19,C  23,C  21,H  40)   -177.9101         0.029075   
    196. D(C  19,C  23,C  21,C  17)      0.7750         0.029075   
    197. D(H  43,C  23,C  19,C  24)    177.4491         0.025242   
    198. D(H  43,C  23,C  19,N   7)     -1.6874         0.025242   
    199. D(C  21,C  23,C  19,C  24)     -4.7884         0.025242   
    200. D(C  21,C  23,C  19,N   7)    176.0751         0.025242   
    201. D(C  19,C  24,C  22,C  17)     -0.7923         0.029043   
    202. D(H  44,C  24,C  19,C  23)   -177.8813         0.025135   
    203. D(H  44,C  24,C  19,N   7)      1.2903         0.025135   
    204. D(C  22,C  24,C  19,C  23)      4.8200         0.025135   
    205. D(C  19,C  24,C  22,H  41)    178.4942         0.029043   
    206. D(C  22,C  24,C  19,N   7)   -176.0083         0.025135   
    207. D(H  44,C  24,C  22,H  41)      1.2098         0.029043   
    208. D(H  44,C  24,C  22,C  17)   -178.0767         0.029043   
    209. D(O   4,C  25,C  15,H  35)     33.6177         0.011649   
    210. D(O   4,C  25,C  15,C  14)    -84.8243         0.011649   
    211. D(O   3,C  25,C  15,H  36)    -28.1688         0.011649   
    212. D(O   3,C  25,C  15,H  35)   -147.0422         0.011649   
    213. D(O   3,C  25,C  15,C  14)     94.5158         0.011649   
    214. D(C  15,C  25,O   3,H  48)   -172.9495         0.047333   
    215. D(O   4,C  25,O   3,H  48)      6.3738         0.047333   
    216. D(C  28,C  26,C  20,N   7)    161.5779         0.011572   
    217. D(N   8,C  26,C  20,H  39)   -135.8388         0.011572   
    218. D(N   8,C  26,C  20,H  38)    105.3116         0.011572   
    219. D(N   8,C  26,C  20,N   7)    -14.1201         0.011572   
    220. D(C  28,C  26,N   8,C  27)     -5.3782         0.039546   
    221. D(C  28,C  26,C  20,H  38)    -78.9904         0.011572   
    222. D(C  20,C  26,N   8,C  27)    170.4262         0.039546   
    223. D(C  30,C  27,N   8,C  26)   -171.8493         0.034007   
    224. D(C  29,C  27,N   8,C  26)      1.3519         0.034007   
    225. D(H  45,C  28,C  26,C  20)      8.0571         0.024070   
    226. D(H  45,C  28,C  26,N   8)   -176.4192         0.024070   
    227. D(N   9,C  28,C  26,C  20)   -171.3128         0.024070   
    228. D(N   9,C  28,C  26,N   8)      4.2109         0.024070   
    229. D(H  45,C  28,N   9,C  29)   -177.9908         0.040721   
    230. D(C  26,C  28,N   9,C  29)      1.4004         0.040721   
    231. D(N  11,C  29,C  27,N   8)   -173.6522         0.023311   
    232. D(N   9,C  29,C  27,C  30)    177.3334         0.023311   
    233. D(N   9,C  29,C  27,N   8)      4.2307         0.023311   
    234. D(C  27,C  29,N  11,C  31)      2.7284         0.028452   
    235. D(N   9,C  29,N  11,C  31)   -175.2074         0.028452   
    236. D(C  27,C  29,N   9,C  28)     -5.3971         0.031885   
    237. D(N  11,C  29,C  27,C  30)     -0.5494         0.023311   
    238. D(N  11,C  29,N   9,C  28)    172.5780         0.031885   
    239. D(N  10,C  30,C  27,N   8)    173.0424         0.016789   
    240. D(O   5,C  30,C  27,C  29)   -177.8151         0.016789   
    241. D(O   5,C  30,C  27,N   8)     -4.5140         0.016789   
    242. D(C  27,C  30,N  10,H  47)   -169.6332         0.028706   
    243. D(C  27,C  30,N  10,C  31)     -1.1304         0.028706   
    244. D(O   5,C  30,N  10,H  47)      8.0916         0.028706   
    245. D(N  10,C  30,C  27,C  29)     -0.2587         0.016789   
    246. D(O   5,C  30,N  10,C  31)    176.5944         0.028706   
    247. D(N  11,C  31,N  12,H  50)    -15.3912         0.033183   
    248. D(N  11,C  31,N  12,H  49)   -160.2206         0.033183   
    249. D(N  10,C  31,N  12,H  50)    166.6537         0.033183   
    250. D(N  10,C  31,N  12,H  49)     21.8243         0.033183   
    251. D(N  12,C  31,N  11,C  29)    177.9712         0.047005   
    252. D(N  10,C  31,N  11,C  29)     -4.2530         0.047005   
    253. D(N  12,C  31,N  10,H  47)    -10.3884         0.030403   
    254. D(N  12,C  31,N  10,C  30)   -178.5063         0.030403   
    255. D(N  11,C  31,N  10,H  47)    171.7525         0.030403   
    256. D(N  11,C  31,N  10,C  30)      3.6345         0.030403   
    -----------------------------------------------------------------

Number of atoms                         .... 51
Number of degrees of freedom            .... 256


         *************************************************************
         *                GEOMETRY OPTIMIZATION CYCLE   1            *
         *************************************************************
---------------------------------
CARTESIAN COORDINATES (ANGSTROEM)
---------------------------------
  O      6.530119    5.316821   -0.913404
  O      8.694819    7.151521    2.502767
  O      5.713688    3.711339    0.395040
  O      4.456029    8.267940    1.335352
  O      3.935134    8.054313    3.495343
  O      4.841928   10.783690    1.789111
  N      7.004283    6.971595    1.022739
  N      8.553913   13.159405    0.324246
  N      6.736582   12.841150    2.223902
  N      7.059122   13.706124    4.851389
  N      4.470039   10.727016    4.016582
  N      5.506513   12.149055    5.579866
  N      4.067249   10.498664    6.273506
  C      6.708823    5.625901    1.449119
  C      5.676237    5.542143    2.586649
  C      4.279778    6.070495    2.205268
  C      8.002436    7.666466    1.640050
  C      8.182556    9.071522    1.197174
  C      6.260868    4.775242    0.275375
  C      8.491912   11.794618    0.611740
  C      8.651932   14.084477    1.448949
  C      9.049831    9.873828    1.946643
  C      7.530087    9.639918    0.099520
  C      9.214113   11.214409    1.659845
  C      7.688701   10.979860   -0.194046
  C      4.200831    7.568213    2.413052
  C      7.678837   13.706906    2.547124
  C      5.985583   12.338799    3.211483
  C      7.804496   14.166132    3.868974
  C      6.171478   12.739503    4.549593
  C      5.068838   11.255778    2.900697
  C      4.724606   11.154238    5.287839
  H      7.648531    5.193880    1.825463
  H      5.585735    4.487272    2.858169
  H      6.056723    6.088603    3.452779
  H      3.541038    5.607674    2.862710
  H      4.043545    5.821025    1.169526
  H      6.329811    7.431936    0.433286
  H      8.441321   15.089193    1.068689
  H      9.672262   14.085339    1.845375
  H      9.581650    9.426282    2.779627
  H      6.880824    9.043094   -0.531592
  H      7.780373   13.423338   -0.278701
  H      9.874455   11.818036    2.271161
  H      7.153590   11.418292   -1.029388
  H      8.542452   14.921826    4.122935
  H      6.236206    4.709322   -1.612195
  H      3.946467    9.861954    3.873581
  H      4.509915    9.268884    1.525126
  H      3.724232    9.574636    6.072504
  H      4.411213   10.671204    7.202916

----------------------------
CARTESIAN COORDINATES (A.U.)
----------------------------
  NO LB      ZA    FRAG     MASS         X           Y           Z
   0 O     8.0000    0    15.999   12.340136   10.047335   -1.726084
   1 O     8.0000    0    15.999   16.430827   13.514417    4.729545
   2 O     8.0000    0    15.999   10.797305    7.013414    0.746517
   3 O     8.0000    0    15.999    8.420675   15.624142    2.523449
   4 O     8.0000    0    15.999    7.436325   15.220446    6.605240
   5 O     8.0000    0    15.999    9.149918   20.378221    3.380930
   6 N     7.0000    0    14.007   13.236177   13.174406    1.932696
   7 N     7.0000    0    14.007   16.164552   24.867672    0.612736
   8 N     7.0000    0    14.007   12.730295   24.266256    4.202566
   9 N     7.0000    0    14.007   13.339807   25.900820    9.167797
  10 N     7.0000    0    14.007    8.447149   20.271122    7.590241
  11 N     7.0000    0    14.007   10.405802   22.958387   10.544419
  12 N     7.0000    0    14.007    7.685987   19.839600   11.855207
  13 C     6.0000    0    12.011   12.677839   10.631413    2.738439
  14 C     6.0000    0    12.011   10.726533   10.473132    4.888058
  15 C     6.0000    0    12.011    8.087608   11.471573    4.167353
  16 C     6.0000    0    12.011   15.122412   14.487521    3.099245
  17 C     6.0000    0    12.011   15.462789   17.142692    2.262332
  18 C     6.0000    0    12.011   11.831325    9.023900    0.520383
  19 C     6.0000    0    12.011   16.047387   22.288598    1.156021
  20 C     6.0000    0    12.011   16.349783   26.615805    2.738117
  21 C     6.0000    0    12.011   17.101701   18.658831    3.678621
  22 C     6.0000    0    12.011   14.229803   18.216805    0.188066
  23 C     6.0000    0    12.011   17.412151   21.192163    3.136653
  24 C     6.0000    0    12.011   14.529539   20.748929   -0.366694
  25 C     6.0000    0    12.011    7.938420   14.301850    4.560007
  26 C     6.0000    0    12.011   14.510899   25.902299    4.813366
  27 C     6.0000    0    12.011   11.311112   23.316950    6.068823
  28 C     6.0000    0    12.011   14.748361   26.770110    7.311302
  29 C     6.0000    0    12.011   11.662403   24.074172    8.597485
  30 C     6.0000    0    12.011    9.578716   21.270338    5.481524
  31 C     6.0000    0    12.011    8.928212   21.078455    9.992568
  32 H     1.0000    0     1.008   14.453628    9.815011    3.449625
  33 H     1.0000    0     1.008   10.555509    8.479715    5.401157
  34 H     1.0000    0     1.008   11.445548   11.505793    6.524807
  35 H     1.0000    0     1.008    6.691591   10.596968    5.409738
  36 H     1.0000    0     1.008    7.641192   11.000143    2.210083
  37 H     1.0000    0     1.008   11.961609   14.044324    0.818792
  38 H     1.0000    0     1.008   15.951785   28.514442    2.019530
  39 H     1.0000    0     1.008   18.277926   26.617434    3.487254
  40 H     1.0000    0     1.008   18.106694   17.813091    5.252734
  41 H     1.0000    0     1.008   13.002873   17.088972   -1.004564
  42 H     1.0000    0     1.008   14.702774   25.366433   -0.526669
  43 H     1.0000    0     1.008   18.660015   22.332851    4.291873
  44 H     1.0000    0     1.008   13.518326   21.577446   -1.945262
  45 H     1.0000    0     1.008   16.142895   28.198165    7.791217
  46 H     1.0000    0     1.008   11.784721    8.899328   -3.046606
  47 H     1.0000    0     1.008    7.457742   18.636392    7.320008
  48 H     1.0000    0     1.008    8.522505   17.515653    2.882071
  49 H     1.0000    0     1.008    7.037778   18.093439   11.475370
  50 H     1.0000    0     1.008    8.335985   20.165653   13.611538

--------------------------------
INTERNAL COORDINATES (ANGSTROEM)
--------------------------------
 O      0   0   0     0.000000000000     0.00000000     0.00000000
 O      1   0   0     4.440977440054     0.00000000     0.00000000
 O      1   2   0     2.226242907236    91.40861055     0.00000000
 O      1   2   3     4.250630046269    62.87450712    89.97403943
 O      4   1   2     2.232157790997   124.01145344   297.09723651
 O      4   1   2     2.585307321702   134.07654444    62.76382812
 N      2   1   3     2.254056256364    25.35904899   259.84181175
 N      6   4   1     4.644209277904   124.17513085   355.42434777
 N      8   6   4     2.648144717401    33.25314299   213.96123627
 N      9   8   6     2.784942051941   124.05502554   158.31833365
 N      6   4   1     2.259013491153    97.12751641   225.65717834
 N     10   9   8     2.316405450526    90.59029185   203.35224662
 N     12  10   9     2.297043337105   176.28223490    71.00519376
 C      7   2   1     1.442216766425    91.94890330    57.94300501
 C     14   7   2     1.538578583280   114.00813379    90.52719159
 C     15  14   7     1.541007682529   113.98736013    63.46580615
 C      2   1   3     1.220181896269    49.74989064   226.24376587
 C     17   2   1     1.484171401348   122.79543586   207.18825837
 C      3   1   2     1.202337987845    30.28557167    13.79900359
 C      8   6   4     1.396116252454    53.09343468   332.05834001
 C      8   6   4     1.459563046662    97.74938683   213.15867117
 C     18  17   2     1.399129577327   117.27423645   350.39663692
 C     18  17   2     1.397724323613   124.24037831   171.33747360
 C     22  18  17     1.380724176830   121.28182742   184.12000580
 C     23  18  17     1.380863713456   120.52684659   175.83275233
 C      5   4   1     1.215829331570    29.05900784   335.44249944
 C      9   8   6     1.319792195414    66.85200889   172.79295250
 C      9   8   6     1.338533881385   163.61947899    62.74089119
 C     10   9   8     1.316180364963    57.98962219    17.70459761
 C     10   9   8     1.346606344903    59.28721837   201.24849346
 C      6   4   1     1.228812100108   124.06825040   243.50125648
 C     12  10   9     1.298583710143   147.97454206     4.58284434
 H     14   7   2     1.100602647348   107.00393011   331.95273759
 H     15  14   7     1.093008234197   106.96411087   183.39162966
 H     15  14   7     1.092506850373   108.97631406   300.31151995
 H     16  15  14     1.091865514331   108.58848194   156.26678961
 H     16  15  14     1.091239350236   110.65219361    36.48295551
 H      7   2   1     1.007115338180   148.22215722   216.90646846
 H     21   8   6     1.094718223830   107.52404439   245.97613406
 H     21   8   6     1.094635298095   110.00876462   128.93011633
 H     22  18  17     1.084892982481   118.59356388     2.82458356
 H     23  18  17     1.084455792809   120.84380526   356.56221484
 H      8   6   4     1.015662122933    73.22851382   104.40654757
 H     24  22  18     1.083569174605   119.74887323   178.55261851
 H     25  23  18     1.084602787588   119.95504244   181.92327357
 H     29  10   9     1.086346233796   116.95759397   178.58409150
 H      1   2   3     0.971467132303   163.56560348   294.12033564
 H     11   6   4     1.021228845125    88.14211919   338.28471007
 H      4   1   2     1.020199829574   138.92163948    66.79017152
 H     13  12  32     1.005927763729   144.42040873    30.99456093
 H     13  12  32     1.005924922641    86.64715626   166.06382473

---------------------------
INTERNAL COORDINATES (A.U.)
---------------------------
 O      0   0   0     0.000000000000     0.00000000     0.00000000
 O      1   0   0     8.392231128624     0.00000000     0.00000000
 O      1   2   0     4.206989402260    91.40861055     0.00000000
 O      1   2   3     8.032526684066    62.87450712    89.97403943
 O      4   1   2     4.218166912684   124.01145344   297.09723651
 O      4   1   2     4.885522810039   134.07654444    62.76382812
 N      2   1   3     4.259549014980    25.35904899   259.84181175
 N      6   4   1     8.776283643854   124.17513085   355.42434777
 N      8   6   4     5.004268278878    33.25314299   213.96123627
 N      9   8   6     5.262777777008   124.05502554   158.31833365
 N      6   4   1     4.268916831112    97.12751641   225.65717834
 N     10   9   8     4.377371916616    90.59029185   203.35224662
 N     12  10   9     4.340782824877   176.28223490    71.00519376
 C      7   2   1     2.725394714293    91.94890330    57.94300501
 C     14   7   2     2.907492157915   114.00813379    90.52719159
 C     15  14   7     2.912082490249   113.98736013    63.46580615
 C      2   1   3     2.305809617517    49.74989064   226.24376587
 C     17   2   1     2.804677484347   122.79543586   207.18825837
 C      3   1   2     2.272089517438    30.28557167    13.79900359
 C      8   6   4     2.638277368254    53.09343468   332.05834001
 C      8   6   4     2.758174433383    97.74938683   213.15867117
 C     18  17   2     2.643971727017   117.27423645   350.39663692
 C     18  17   2     2.641316182348   124.24037831   171.33747360
 C     22  18  17     2.609190560693   121.28182742   184.12000580
 C     23  18  17     2.609454246700   120.52684659   175.83275233
 C      5   4   1     2.297584462255    29.05900784   335.44249944
 C      9   8   6     2.494045803020    66.85200889   172.79295250
 C      9   8   6     2.529462456793   163.61947899    62.74089119
 C     10   9   8     2.487220432624    57.98962219    17.70459761
 C     10   9   8     2.544717202067    59.28721837   201.24849346
 C      6   4   1     2.322118339253   124.06825040   243.50125648
 C     12  10   9     2.453967574141   147.97454206     4.58284434
 H     14   7   2     2.079837585757   107.00393011   331.95273759
 H     15  14   7     2.065486224752   106.96411087   183.39162966
 H     15  14   7     2.064538746637   108.97631406   300.31151995
 H     16  15  14     2.063326797159   108.58848194   156.26678961
 H     16  15  14     2.062143518504   110.65219361    36.48295551
 H      7   2   1     1.903172174433   148.22215722   216.90646846
 H     21   8   6     2.068717636852   107.52404439   245.97613406
 H     21   8   6     2.068560929922   110.00876462   128.93011633
 H     22  18  17     2.050150621502   118.59356388     2.82458356
 H     23  18  17     2.049324452753   120.84380526   356.56221484
 H      8   6   4     1.919323256940    73.22851382   104.40654757
 H     24  22  18     2.047648987163   119.74887323   178.55261851
 H     25  23  18     2.049602232629   119.95504244   181.92327357
 H     29  10   9     2.052896868492   116.95759397   178.58409150
 H      1   2   3     1.835806828159   163.56560348   294.12033564
 H     11   6   4     1.929842837347    88.14211919   338.28471007
 H      4   1   2     1.927898279768   138.92163948    66.79017152
 H     13  12  32     1.900927983956   144.42040873    30.99456093
 H     13  12  32     1.900922615078    86.64715626   166.06382473

---------------------
BASIS SET INFORMATION
---------------------
There are 4 groups of distinct atoms

 Group   1 Type O   : 11s6p2d contracted to 5s3p2d pattern {62111/411/11}
 Group   2 Type N   : 11s6p1d contracted to 5s3p1d pattern {62111/411/1}
 Group   3 Type C   : 11s6p1d contracted to 5s3p1d pattern {62111/411/1}
 Group   4 Type H   : 5s contracted to 3s pattern {311}

Atom   0O    basis set group =>   1
Atom   1O    basis set group =>   1
Atom   2O    basis set group =>   1
Atom   3O    basis set group =>   1
Atom   4O    basis set group =>   1
Atom   5O    basis set group =>   1
Atom   6N    basis set group =>   2
Atom   7N    basis set group =>   2
Atom   8N    basis set group =>   2
Atom   9N    basis set group =>   2
Atom  10N    basis set group =>   2
Atom  11N    basis set group =>   2
Atom  12N    basis set group =>   2
Atom  13C    basis set group =>   3
Atom  14C    basis set group =>   3
Atom  15C    basis set group =>   3
Atom  16C    basis set group =>   3
Atom  17C    basis set group =>   3
Atom  18C    basis set group =>   3
Atom  19C    basis set group =>   3
Atom  20C    basis set group =>   3
Atom  21C    basis set group =>   3
Atom  22C    basis set group =>   3
Atom  23C    basis set group =>   3
Atom  24C    basis set group =>   3
Atom  25C    basis set group =>   3
Atom  26C    basis set group =>   3
Atom  27C    basis set group =>   3
Atom  28C    basis set group =>   3
Atom  29C    basis set group =>   3
Atom  30C    basis set group =>   3
Atom  31C    basis set group =>   3
Atom  32H    basis set group =>   4
Atom  33H    basis set group =>   4
Atom  34H    basis set group =>   4
Atom  35H    basis set group =>   4
Atom  36H    basis set group =>   4
Atom  37H    basis set group =>   4
Atom  38H    basis set group =>   4
Atom  39H    basis set group =>   4
Atom  40H    basis set group =>   4
Atom  41H    basis set group =>   4
Atom  42H    basis set group =>   4
Atom  43H    basis set group =>   4
Atom  44H    basis set group =>   4
Atom  45H    basis set group =>   4
Atom  46H    basis set group =>   4
Atom  47H    basis set group =>   4
Atom  48H    basis set group =>   4
Atom  49H    basis set group =>   4
Atom  50H    basis set group =>   4
---------------------------------
AUXILIARY/J BASIS SET INFORMATION
---------------------------------
There are 4 groups of distinct atoms

 Group   1 Type O   : 8s3p3d contracted to 6s3p3d pattern {311111/111/111}
 Group   2 Type N   : 8s3p3d contracted to 6s3p3d pattern {311111/111/111}
 Group   3 Type C   : 8s3p3d contracted to 6s3p3d pattern {311111/111/111}
 Group   4 Type H   : 5s2p contracted to 3s1p pattern {311/2}

Atom   0O    basis set group =>   1
Atom   1O    basis set group =>   1
Atom   2O    basis set group =>   1
Atom   3O    basis set group =>   1
Atom   4O    basis set group =>   1
Atom   5O    basis set group =>   1
Atom   6N    basis set group =>   2
Atom   7N    basis set group =>   2
Atom   8N    basis set group =>   2
Atom   9N    basis set group =>   2
Atom  10N    basis set group =>   2
Atom  11N    basis set group =>   2
Atom  12N    basis set group =>   2
Atom  13C    basis set group =>   3
Atom  14C    basis set group =>   3
Atom  15C    basis set group =>   3
Atom  16C    basis set group =>   3
Atom  17C    basis set group =>   3
Atom  18C    basis set group =>   3
Atom  19C    basis set group =>   3
Atom  20C    basis set group =>   3
Atom  21C    basis set group =>   3
Atom  22C    basis set group =>   3
Atom  23C    basis set group =>   3
Atom  24C    basis set group =>   3
Atom  25C    basis set group =>   3
Atom  26C    basis set group =>   3
Atom  27C    basis set group =>   3
Atom  28C    basis set group =>   3
Atom  29C    basis set group =>   3
Atom  30C    basis set group =>   3
Atom  31C    basis set group =>   3
Atom  32H    basis set group =>   4
Atom  33H    basis set group =>   4
Atom  34H    basis set group =>   4
Atom  35H    basis set group =>   4
Atom  36H    basis set group =>   4
Atom  37H    basis set group =>   4
Atom  38H    basis set group =>   4
Atom  39H    basis set group =>   4
Atom  40H    basis set group =>   4
Atom  41H    basis set group =>   4
Atom  42H    basis set group =>   4
Atom  43H    basis set group =>   4
Atom  44H    basis set group =>   4
Atom  45H    basis set group =>   4
Atom  46H    basis set group =>   4
Atom  47H    basis set group =>   4
Atom  48H    basis set group =>   4
Atom  49H    basis set group =>   4
Atom  50H    basis set group =>   4


           ************************************************************
           *        Program running with 16 parallel MPI-processes    *
           *              working on a common directory               *
           ************************************************************
------------------------------------------------------------------------------
                             ORCA STARTUP CALCULATIONS
                           -- RI-GTO INTEGRALS CHOSEN --
------------------------------------------------------------------------------
------------------------------------------------------------------------------
                   ___                                                        
                  /   \      - P O W E R E D   B Y -                         
                 /     \                                                     
                 |  |  |   _    _      __       _____    __    __             
                 |  |  |  | |  | |    /  \     |  _  \  |  |  /  |          
                  \  \/   | |  | |   /    \    | | | |  |  | /  /          
                 / \  \   | |__| |  /  /\  \   | |_| |  |  |/  /          
                |  |  |   |  __  | /  /__\  \  |    /   |      \           
                |  |  |   | |  | | |   __   |  |    \   |  |\   \          
                \     /   | |  | | |  |  |  |  | |\  \  |  | \   \       
                 \___/    |_|  |_| |__|  |__|  |_| \__\ |__|  \__/        
                                                                              
                      - O R C A' S   B I G   F R I E N D -                    
                                      &                                       
                       - I N T E G R A L  F E E D E R -                       
                                                                              
 v1 FN, 2020, v2 2021, v3 2022-2024                                           
------------------------------------------------------------------------------


----------------------
SHARK INTEGRAL PACKAGE
----------------------

Number of atoms                             ...     51
Number of basis functions                   ...    695
Number of shells                            ...    351
Maximum angular momentum                    ...      2
Integral batch strategy                     ... SHARK/LIBINT Hybrid
RI-J (if used) integral strategy            ... SPLIT-RIJ (Revised 2003 algorithm where possible)
Printlevel                                  ...      1
Contraction scheme used                     ... SEGMENTED contraction
Prescreening option                         ... SCHWARTZ
   Thresh                                   ... 2.500e-11
   Tcut                                     ... 2.500e-12
   Tpresel                                  ... 2.500e-12 
Coulomb Range Separation                    ... NOT USED
Exchange Range Separation                   ... NOT USED
Multipole approximations                    ... NOT USED
Finite Nucleus Model                        ... NOT USED
CABS basis                                  ... NOT available
Auxiliary Coulomb fitting basis             ... AVAILABLE
   # of basis functions in Aux-J            ...   1074
   # of shells in Aux-J                     ...    460
   Maximum angular momentum in Aux-J        ...      2
Auxiliary J/K fitting basis                 ... NOT available
Auxiliary Correlation fitting basis         ... NOT available
Auxiliary 'external' fitting basis          ... NOT available

Checking pre-screening integrals            ... done (  0.0 sec) Dimension = 351
Check shell pair data                       ... done (  0.0 sec)
Shell pair information
Shell pair cut-off parameter TPreSel        ...   2.5e-12
Total number of shell pairs                 ...     61776
Shell pairs after pre-screening             ...     41443
Total number of primitive shell pairs       ...    230264
Primitive shell pairs kept                  ...     92786
          la=0 lb=0:  14532 shell pairs
          la=1 lb=0:  14992 shell pairs
          la=1 lb=1:   3785 shell pairs
          la=2 lb=0:   5008 shell pairs
          la=2 lb=1:   2665 shell pairs
          la=2 lb=2:    461 shell pairs

Calculating one electron integrals          ... done (  0.0 sec)
Calculating RI/J V-Matrix + Cholesky decomp.... done (  0.0 sec)
Calculating Nuclear repulsion               ... done (  0.0 sec) ENN=   3397.066577456124 Eh

Diagonalization of the overlap matrix:
Smallest eigenvalue                        ... 7.150e-06
Time for diagonalization                   ...    0.055 sec
Threshold for overlap eigenvalues          ... 1.000e-07
Number of eigenvalues below threshold      ... 0
Time for construction of square roots      ...    0.035 sec
Total time needed                          ...    0.098 sec

-------------------
DFT GRID GENERATION
-------------------

General Integration Accuracy     IntAcc      ... 4.959
Radial Grid Type                 RadialGrid  ... OptM3 with GC (2021)
Angular Grid (max. ang.)         AngularGrid ... 6 (Lebedev-590)
Angular grid pruning method      GridPruning ... 4 (adaptive)
Weight generation scheme         WeightScheme... mBecke (2022)
Basis function cutoff            BFCut       ... 1.0000e-11
Integration weight cutoff        WCut        ... 1.0000e-14
Partially contracted basis set               ... off
Rotationally invariant grid construction     ... off
Angular grids for H and He will be reduced by one unit
Diffuse basis detected: some atoms will have their outermost
                        angular grid increased by 1.

Total number of grid points                  ...   615802
Total number of batches                      ...     9645
Average number of points per batch           ...       63
Average number of grid points per atom       ...    12075
Initializing property integral containers    ... done (  0.0 sec)

SHARK setup successfully completed in   5.7 seconds

Maximum memory used throughout the entire STARTUP-calculation: 156.0 MB


           ************************************************************
           *        Program running with 16 parallel MPI-processes    *
           *              working on a common directory               *
           ************************************************************
-------------------------------------------------------------------------------
                                 ORCA GUESS
                   Start orbitals & Density for SCF / CASSCF
-------------------------------------------------------------------------------

------------
SCF SETTINGS
------------
Hamiltonian:
 Density Functional     Method          .... DFT(GTOs)
 Exchange Functional    Exchange        .... B973C
 Correlation Functional Correlation     .... B973C
 Gradients option       PostSCFGGA      .... off
 RI-approximation to the Coulomb term is turned on
   Number of AuxJ basis functions       .... 1074


General Settings:
 Integral files         IntName         .... m1_00_Vitamin_B9-GFN1_00016-B97-3C-TZ
 Hartree-Fock type      HFTyp           .... RHF
 Total Charge           Charge          ....    0
 Multiplicity           Mult            ....    1
 Number of Electrons    NEL             ....  230
 Basis Dimension        Dim             ....  695
 Nuclear Repulsion      ENuc            ....   3397.0665774561 Eh

Convergence Acceleration:
 AO-DIIS                CNVDIIS         .... on
   Start iteration      DIISMaxIt       ....    12
   Startup error        DIISStart       ....  0.200000
   # of expansion vecs  DIISMaxEq       ....     5
   Bias factor          DIISBfac        ....   1.050
   Max. coefficient     DIISMaxC        ....  10.000
 MO-DIIS                CNVKDIIS        .... off
 Trust-Rad. Augm. Hess. CNVTRAH         .... off
 SOSCF                  CNVSOSCF        .... on
   Start iteration      SOSCFMaxIt      ....   150
   Startup grad/error   SOSCFStart      ....  0.003300
   Hessian update       SOSCFHessUp     .... L-BFGS
 Level Shifting         CNVShift        .... on
   Level shift para.    LevelShift      ....    0.2500
   Turn off err/grad.   ShiftErr        ....    0.0010
 Zerner damping         CNVZerner       .... off
 Static damping         CNVDamp         .... on
   Fraction old density DampFac         ....    0.7000
   Max. Damping (<1)    DampMax         ....    0.9800
   Min. Damping (>=0)   DampMin         ....    0.0000
   Turn off err/grad.   DampErr         ....    0.1000

SCF Procedure:
 Maximum # iterations   MaxIter         ....   800
 SCF integral mode      SCFMode         .... Direct
   Integral package                     .... SHARK and LIBINT hybrid scheme
 Reset frequency        DirectResetFreq ....    20
 Integral Threshold     Thresh          ....  2.500e-11 Eh
 Primitive CutOff       TCut            ....  2.500e-12 Eh

Convergence Tolerance:
 Convergence Check Mode ConvCheckMode   .... Total+1el-Energy
 Convergence forced     ConvForced      .... 0
 Energy Change          TolE            ....  1.000e-08 Eh
 1-El. energy change                    ....  1.000e-05 Eh
 Orbital Gradient       TolG            ....  1.000e-05
 Orbital Rotation angle TolX            ....  1.000e-05
 DIIS Error             TolErr          ....  5.000e-07

--------------------------------
INITIAL GUESS: MINIMAL BASIS EHT
--------------------------------
The minimal basis has 179 functions
EHT matrix was diagonalized
Basis set overlap was calculated now projecting the orbitals
Using GuessMode=FMatrix for the initial guess
C*T matrix was formed
Effective Fockian was calculated
Effective Fockian was diagonalized
Initial density was built
                      ------------------
                      INITIAL GUESS DONE
                      ------------------
             **** ENERGY FILE WAS UPDATED (m1_00_Vitamin_B9-GFN1_00016-B97-3C-TZ.en.tmp) ****
Finished Guess after   0.6 sec
Maximum memory used throughout the entire GUESS-calculation: 73.2 MB


           ************************************************************
           *        Program running with 16 parallel MPI-processes    *
           *              working on a common directory               *
           ************************************************************

-------------------------------------------------------------------------------------------
                                      ORCA LEAN-SCF
                              memory conserving SCF solver
-------------------------------------------------------------------------------------------

----------------------------------------D-I-I-S--------------------------------------------
Iteration    Energy (Eh)           Delta-E    RMSDP     MaxDP     DIISErr   Damp  Time(sec)
-------------------------------------------------------------------------------------------
               ***  Starting incremental Fock matrix formation  ***
    1    -1563.3779815761786267     0.00e+00  5.59e-03  6.52e-01  4.67e-01  0.700   1.9
Warning: op=0 Small HOMO/LUMO gap (  -0.457) - skipping pre-diagonalization
         LevelShift set to 0.557 Eh
         Will do a full diagonalization
    2    -1565.4153549539655614    -2.04e+00  4.03e-03  4.10e-01  3.35e-01  0.700   2.1
    3    -1566.3026197944241176    -8.87e-01  2.46e-03  1.24e-01  2.44e-01  0.700   1.9
                               ***Turning on AO-DIIS***
    4    -1567.1257573434572805    -8.23e-01  1.82e-03  1.39e-01  1.73e-01  0.700   1.9
    5    -1567.7342042108043643    -6.08e-01  1.45e-03  1.44e-01  1.17e-01  0.700   1.9
    6    -1568.1530843109890156    -4.19e-01  1.08e-03  1.01e-01  8.00e-02  0.700   1.8
    7    -1568.4464408654962426    -2.93e-01  2.76e-03  1.65e-01  5.52e-02  0.000   1.8
    8    -1569.1292821038964576    -6.83e-01  4.66e-04  5.90e-02  3.23e-02  0.000   1.9
    9    -1569.1368377508565572    -7.56e-03  3.10e-04  4.80e-02  1.30e-02  0.000   1.8
   10    -1569.1398418677677000    -3.00e-03  2.05e-04  2.29e-02  5.89e-03  0.000   1.8
   11    -1569.1416670567982692    -1.83e-03  1.58e-04  1.50e-02  4.82e-03  0.000   1.8
   12    -1569.1427962046977882    -1.13e-03  1.14e-04  7.45e-03  4.00e-03  0.000   1.8
                              *** Initializing SOSCF ***
---------------------------------------S-O-S-C-F--------------------------------------
Iteration    Energy (Eh)           Delta-E    RMSDP     MaxDP     MaxGrad    Time(sec)
--------------------------------------------------------------------------------------
   13    -1569.1435656202143036    -7.69e-04  8.78e-05  4.60e-03  3.27e-03     1.9
               *** Restarting incremental Fock matrix formation ***
   14    -1569.1440622172299300    -4.97e-04  3.05e-04  1.65e-02  5.99e-03     2.0
   15    -1569.1449780527104849    -9.16e-04  2.48e-04  1.23e-02  1.33e-03     1.7
   16    -1569.1446147815099721     3.63e-04  1.51e-04  7.52e-03  2.28e-03     1.7
   17    -1569.1451083100341748    -4.94e-04  6.10e-05  8.08e-03  4.55e-04     1.7
   18    -1569.1450799366698448     2.84e-05  4.16e-05  5.58e-03  1.04e-03     1.7
   19    -1569.1451148387473040    -3.49e-05  1.56e-05  1.00e-03  1.11e-04     1.7
   20    -1569.1451128333278575     2.01e-06  9.19e-06  7.87e-04  1.91e-04     1.6
   21    -1569.1451155463123541    -2.71e-06  7.63e-06  5.24e-04  4.39e-05     1.7
   22    -1569.1451153253306074     2.21e-07  4.27e-06  2.70e-04  9.44e-05     1.7
   23    -1569.1451156021171300    -2.77e-07  7.70e-06  5.79e-04  9.14e-06     1.6
   24    -1569.1451155840518368     1.81e-08  2.58e-06  1.70e-04  1.47e-05     1.6
   25    -1569.1451155933541486    -9.30e-09  6.03e-06  6.52e-04  3.03e-06     1.6
                 **** Energy Check signals convergence ****

               *****************************************************
               *                     SUCCESS                       *
               *           SCF CONVERGED AFTER  25 CYCLES          *
               *****************************************************

             **** ENERGY FILE WAS UPDATED (m1_00_Vitamin_B9-GFN1_00016-B97-3C-TZ.en.tmp) ****

----------------
TOTAL SCF ENERGY
----------------

Total Energy       :      -1569.14511559335415 Eh          -42698.60935 eV

Components:
Nuclear Repulsion  :       3397.06657745612438 Eh           92438.88107 eV
Electronic Energy  :      -4966.21169304947944 Eh         -135137.49043 eV
One Electron Energy:      -8900.80856725376725 Eh         -242203.31449 eV
Two Electron Energy:       3934.59687420428827 Eh          107065.82407 eV

Virial components:
Potential Energy   :      -3132.85855828716194 Eh          -85249.41537 eV
Kinetic Energy     :       1563.71344269380802 Eh           42550.80602 eV
Virial Ratio       :          2.00347357306732

DFT components:
N(Alpha)           :      115.000030392452 electrons
N(Beta)            :      115.000030392452 electrons
N(Total)           :      230.000060784905 electrons
E(XC)              :     -209.164803687743 Eh       

---------------
SCF CONVERGENCE
---------------

  Last Energy change         ...    9.3023e-09  Tolerance :   1.0000e-08
  Last MAX-Density change    ...    6.5221e-04  Tolerance :   1.0000e-07
  Last RMS-Density change    ...    6.0303e-06  Tolerance :   5.0000e-09
  Last DIIS Error            ...    3.2717e-03  Tolerance :   5.0000e-07
  Last Orbital Gradient      ...    3.0267e-06  Tolerance :   1.0000e-05
  Last Orbital Rotation      ...    1.0894e-05  Tolerance :   1.0000e-05


----------------
ORBITAL ENERGIES
----------------

  NO   OCC          E(Eh)            E(eV) 
   0   2.0000     -18.806771      -511.7583 
   1   2.0000     -18.787238      -511.2267 
   2   2.0000     -18.749060      -510.1879 
   3   2.0000     -18.745435      -510.0892 
   4   2.0000     -18.739539      -509.9288 
   5   2.0000     -18.696972      -508.7705 
   6   2.0000     -14.058411      -382.5488 
   7   2.0000     -14.037762      -381.9869 
   8   2.0000     -14.013038      -381.3141 
   9   2.0000     -14.008990      -381.2040 
  10   2.0000     -14.006986      -381.1495 
  11   2.0000     -14.005115      -381.0985 
  12   2.0000     -13.989049      -380.6614 
  13   2.0000     -10.028567      -272.8912 
  14   2.0000     -10.028039      -272.8768 
  15   2.0000     -10.026171      -272.8260 
  16   2.0000     -10.022699      -272.7315 
  17   2.0000      -9.980762      -271.5903 
  18   2.0000      -9.975264      -271.4407 
  19   2.0000      -9.953130      -270.8384 
  20   2.0000      -9.951713      -270.7999 
  21   2.0000      -9.950757      -270.7739 
  22   2.0000      -9.949326      -270.7349 
  23   2.0000      -9.948904      -270.7234 
  24   2.0000      -9.934390      -270.3285 
  25   2.0000      -9.912983      -269.7460 
  26   2.0000      -9.909179      -269.6425 
  27   2.0000      -9.898608      -269.3548 
  28   2.0000      -9.891535      -269.1624 
  29   2.0000      -9.891148      -269.1518 
  30   2.0000      -9.890615      -269.1373 
  31   2.0000      -9.889295      -269.1014 
  32   2.0000      -1.043107       -28.3844 
  33   2.0000      -1.033817       -28.1316 
  34   2.0000      -1.002017       -27.2663 
  35   2.0000      -0.957790       -26.0628 
  36   2.0000      -0.951705       -25.8972 
  37   2.0000      -0.950678       -25.8693 
  38   2.0000      -0.945630       -25.7319 
  39   2.0000      -0.927371       -25.2351 
  40   2.0000      -0.881119       -23.9765 
  41   2.0000      -0.863922       -23.5085 
  42   2.0000      -0.856679       -23.3114 
  43   2.0000      -0.853231       -23.2176 
  44   2.0000      -0.834342       -22.7036 
  45   2.0000      -0.780336       -21.2340 
  46   2.0000      -0.744062       -20.2470 
  47   2.0000      -0.737544       -20.0696 
  48   2.0000      -0.698969       -19.0199 
  49   2.0000      -0.686604       -18.6835 
  50   2.0000      -0.677459       -18.4346 
  51   2.0000      -0.663146       -18.0451 
  52   2.0000      -0.650130       -17.6909 
  53   2.0000      -0.622733       -16.9454 
  54   2.0000      -0.619519       -16.8580 
  55   2.0000      -0.594958       -16.1896 
  56   2.0000      -0.578533       -15.7427 
  57   2.0000      -0.568580       -15.4718 
  58   2.0000      -0.558069       -15.1858 
  59   2.0000      -0.552868       -15.0443 
  60   2.0000      -0.545255       -14.8371 
  61   2.0000      -0.536980       -14.6120 
  62   2.0000      -0.532441       -14.4884 
  63   2.0000      -0.513362       -13.9693 
  64   2.0000      -0.500823       -13.6281 
  65   2.0000      -0.493016       -13.4157 
  66   2.0000      -0.485849       -13.2206 
  67   2.0000      -0.479842       -13.0572 
  68   2.0000      -0.473126       -12.8744 
  69   2.0000      -0.456805       -12.4303 
  70   2.0000      -0.450451       -12.2574 
  71   2.0000      -0.449279       -12.2255 
  72   2.0000      -0.444300       -12.0900 
  73   2.0000      -0.442397       -12.0382 
  74   2.0000      -0.437903       -11.9160 
  75   2.0000      -0.429689       -11.6924 
  76   2.0000      -0.422934       -11.5086 
  77   2.0000      -0.418709       -11.3937 
  78   2.0000      -0.416524       -11.3342 
  79   2.0000      -0.412234       -11.2174 
  80   2.0000      -0.402213       -10.9448 
  81   2.0000      -0.394974       -10.7478 
  82   2.0000      -0.387528       -10.5452 
  83   2.0000      -0.382658       -10.4126 
  84   2.0000      -0.379881       -10.3371 
  85   2.0000      -0.378698       -10.3049 
  86   2.0000      -0.377075       -10.2607 
  87   2.0000      -0.373027       -10.1506 
  88   2.0000      -0.369909       -10.0657 
  89   2.0000      -0.365320        -9.9409 
  90   2.0000      -0.357988        -9.7413 
  91   2.0000      -0.354434        -9.6447 
  92   2.0000      -0.338387        -9.2080 
  93   2.0000      -0.332025        -9.0349 
  94   2.0000      -0.328266        -8.9326 
  95   2.0000      -0.324613        -8.8332 
  96   2.0000      -0.319337        -8.6896 
  97   2.0000      -0.310251        -8.4423 
  98   2.0000      -0.302275        -8.2253 
  99   2.0000      -0.292900        -7.9702 
 100   2.0000      -0.292038        -7.9468 
 101   2.0000      -0.287338        -7.8189 
 102   2.0000      -0.279559        -7.6072 
 103   2.0000      -0.273272        -7.4361 
 104   2.0000      -0.270040        -7.3482 
 105   2.0000      -0.261649        -7.1198 
 106   2.0000      -0.249965        -6.8019 
 107   2.0000      -0.249577        -6.7913 
 108   2.0000      -0.246452        -6.7063 
 109   2.0000      -0.226959        -6.1759 
 110   2.0000      -0.221411        -6.0249 
 111   2.0000      -0.217352        -5.9145 
 112   2.0000      -0.215287        -5.8583 
 113   2.0000      -0.204578        -5.5668 
 114   2.0000      -0.180976        -4.9246 
 115   0.0000      -0.112037        -3.0487 
 116   0.0000      -0.075708        -2.0601 
 117   0.0000      -0.050665        -1.3787 
 118   0.0000      -0.041906        -1.1403 
 119   0.0000      -0.038582        -1.0499 
 120   0.0000      -0.031473        -0.8564 
 121   0.0000      -0.029720        -0.8087 
 122   0.0000       0.003653         0.0994 
 123   0.0000       0.005962         0.1622 
 124   0.0000       0.009887         0.2690 
 125   0.0000       0.015906         0.4328 
*Only the first 10 virtual orbitals were printed.

                    ********************************
                    * MULLIKEN POPULATION ANALYSIS *
                    ********************************

-----------------------
MULLIKEN ATOMIC CHARGES
-----------------------
   0 O :   -0.489688
   1 O :   -0.460587
   2 O :   -0.375689
   3 O :   -0.493349
   4 O :   -0.515345
   5 O :   -0.501127
   6 N :   -0.392454
   7 N :   -0.311147
   8 N :    0.011669
   9 N :   -0.051170
  10 N :   -0.377959
  11 N :   -0.163111
  12 N :   -0.640134
  13 C :   -0.113800
  14 C :   -0.242976
  15 C :   -0.264100
  16 C :    0.129862
  17 C :    0.022493
  18 C :    0.335277
  19 C :    0.130204
  20 C :   -0.487419
  21 C :   -0.217668
  22 C :   -0.040668
  23 C :   -0.129684
  24 C :   -0.187574
  25 C :    0.393623
  26 C :    0.115165
  27 C :    0.057064
  28 C :   -0.158866
  29 C :   -0.112141
  30 C :    0.296623
  31 C :    0.380488
  32 H :    0.220552
  33 H :    0.190642
  34 H :    0.206897
  35 H :    0.201065
  36 H :    0.167332
  37 H :    0.329032
  38 H :    0.209240
  39 H :    0.221465
  40 H :    0.197523
  41 H :    0.170825
  42 H :    0.315047
  43 H :    0.156966
  44 H :    0.159881
  45 H :    0.172626
  46 H :    0.443806
  47 H :    0.380019
  48 H :    0.399849
  49 H :    0.352169
  50 H :    0.359253
Sum of atomic charges:   -0.0000000

--------------------------------
MULLIKEN REDUCED ORBITAL CHARGES
--------------------------------
  0 O s       :     3.773982  s :     3.773982
      pz      :     1.262875  p :     4.685899
      px      :     1.757764
      py      :     1.665260
      dz2     :     0.000407  d :     0.029806
      dxz     :     0.002521
      dyz     :     0.014376
      dx2y2   :     0.005631
      dxy     :     0.006872

  1 O s       :     3.847132  s :     3.847132
      pz      :     1.384273  p :     4.574923
      px      :     1.522019
      py      :     1.668631
      dz2     :     0.005969  d :     0.038532
      dxz     :     0.011066
      dyz     :     0.007431
      dx2y2   :     0.005530
      dxy     :     0.008537

  2 O s       :     3.837617  s :     3.837617
      pz      :     1.775610  p :     4.507920
      px      :     1.399984
      py      :     1.332326
      dz2     :     0.003706  d :     0.030152
      dxz     :     0.001113
      dyz     :     0.005278
      dx2y2   :     0.009136
      dxy     :     0.010919

  3 O s       :     3.755405  s :     3.755405
      pz      :     1.570833  p :     4.704429
      px      :     1.726483
      py      :     1.407113
      dz2     :     0.015089  d :     0.033515
      dxz     :     0.004527
      dyz     :     0.003903
      dx2y2   :     0.001201
      dxy     :     0.008796

  4 O s       :     3.830086  s :     3.830086
      pz      :     1.431783  p :     4.646349
      px      :     1.486611
      py      :     1.727956
      dz2     :     0.012936  d :     0.038910
      dxz     :     0.008078
      dyz     :     0.008090
      dx2y2   :     0.006287
      dxy     :     0.003519

  5 O s       :     3.854526  s :     3.854526
      pz      :     1.422487  p :     4.621439
      px      :     1.617715
      py      :     1.581238
      dz2     :     0.013278  d :     0.025162
      dxz     :     0.000427
      dyz     :     0.003267
      dx2y2   :     0.004533
      dxy     :     0.003658

  6 N s       :     3.328082  s :     3.328082
      pz      :     1.484847  p :     4.024224
      px      :     1.330056
      py      :     1.209321
      dz2     :     0.003693  d :     0.040148
      dxz     :     0.008094
      dyz     :     0.008876
      dx2y2   :     0.008043
      dxy     :     0.011442

  7 N s       :     3.389765  s :     3.389765
      pz      :     1.300506  p :     3.877466
      px      :     1.499608
      py      :     1.077352
      dz2     :     0.006240  d :     0.043916
      dxz     :     0.008167
      dyz     :     0.011488
      dx2y2   :     0.011237
      dxy     :     0.006784

  8 N s       :     3.476399  s :     3.476399
      pz      :     1.380326  p :     3.463569
      px      :     1.014952
      py      :     1.068291
[...]
114:   1446.27   0.000557    2.82  0.000120  (-0.006990  0.007634  0.003624)
115:   1472.58   0.003182   16.08  0.000674  ( 0.010999  0.019803  0.012697)
116:   1482.73   0.004081   20.62  0.000859  ( 0.005115  0.015324 -0.024451)
117:   1486.82   0.009549   48.26  0.002004  ( 0.027403  0.022390 -0.027424)
118:   1490.48   0.007958   40.22  0.001666  (-0.029693 -0.027974  0.001447)
119:   1498.40   0.019164   96.85  0.003991  ( 0.034152  0.022883 -0.047971)
120:   1518.64   0.006094   30.80  0.001252  (-0.004722 -0.021555 -0.027664)
121:   1522.60   0.008017   40.52  0.001643  ( 0.016831  0.036713  0.003469)
122:   1531.63   0.027246  137.69  0.005551  (-0.049510 -0.054233  0.012594)
123:   1548.48   0.009344   47.22  0.001883  ( 0.022625 -0.035915 -0.009015)
124:   1551.45   0.025113  126.91  0.005051  ( 0.056465  0.041703  0.011128)
125:   1584.54   0.026646  134.66  0.005248  ( 0.046940  0.050089 -0.023139)
126:   1610.55   0.005696   28.78  0.001104  ( 0.001685  0.032589 -0.006227)
127:   1634.53   0.028213  142.58  0.005386  ( 0.065611  0.029626  0.014281)
128:   1644.22   0.041455  209.50  0.007868  (-0.002069 -0.088637  0.002692)
129:   1678.06   0.110144  556.62  0.020483  (-0.076375 -0.079545  0.091229)
130:   1693.57   0.016276   82.25  0.002999  (-0.033061  0.043653 -0.000658)
131:   1695.68   0.035578  179.80  0.006548  ( 0.054863 -0.040204  0.043832)
132:   1721.62   0.141757  716.38  0.025695  ( 0.009689  0.072637  0.142566)
133:   1773.29   0.064911  328.03  0.011423  ( 0.047472  0.095022 -0.011845)
134:   2883.15   0.272296  1376.07  0.029472  ( 0.038063  0.162527  0.040109)
135:   2998.43   0.008144   41.16  0.000848  (-0.014675 -0.022312 -0.011593)
136:   3002.18   0.008558   43.25  0.000890  (-0.014291 -0.026051 -0.002583)
137:   3035.93   0.002240   11.32  0.000230  (-0.006990 -0.012194  0.005720)
138:   3036.65   0.002365   11.95  0.000243  ( 0.006417 -0.011412  0.008463)
139:   3037.01   0.002583   13.05  0.000265  (-0.009924  0.003284 -0.012495)
140:   3080.57   0.008751   44.23  0.000887  ( 0.019215  0.022744 -0.000052)
141:   3085.57   0.002136   10.80  0.000216  (-0.007239 -0.012073  0.004232)
142:   3090.28   0.003742   18.91  0.000378  ( 0.000010  0.011632  0.015574)
143:   3119.31   0.003004   15.18  0.000301  ( 0.001583 -0.014167  0.009863)
144:   3136.83   0.002717   13.73  0.000270  ( 0.007622  0.002907  0.014275)
145:   3142.28   0.001362    6.88  0.000135  ( 0.001899  0.011078  0.002990)
146:   3157.57   0.000810    4.09  0.000080  ( 0.006303  0.002357  0.005898)
147:   3168.52   0.231869  1171.77  0.022836  ( 0.046442  0.138241  0.039611)
148:   3541.17   0.002892   14.61  0.000255  (-0.003652  0.010936 -0.011040)
149:   3542.09   0.016946   85.64  0.001493  (-0.012478 -0.024817  0.026858)
150:   3580.40   0.009027   45.62  0.000787  ( 0.026828 -0.008120  0.001044)
151:   3661.05   0.009622   48.62  0.000820  (-0.010118 -0.016086 -0.021424)
152:   3670.09   0.009632   48.68  0.000819  (-0.000594 -0.012875 -0.025552)

* The epsilon (eps) is given for a Dirac delta lineshape.
** The dipole moment derivative (T) already includes vibrational overlap.

The first frequency considered to be a vibration is 6
The total number of vibrations considered is 147


--------------------------
THERMOCHEMISTRY AT 298.15K
--------------------------

Temperature         ...   298.15 K
Pressure            ...     1.00 atm
Total Mass          ...   441.40 AMU
Quasi RRHO          ...     True
Cut-Off Frequency   ...     1.00 cm^-1

Throughout the following assumptions are being made:
  (1) The electronic state is orbitally nondegenerate
  (2) There are no thermally accessible electronically excited states
  (3) Hindered rotations indicated by low frequency modes are not
      treated as such but are treated as vibrations and this may
      cause some error
  (4) All equations used are the standard statistical mechanics
      equations for an ideal gas
  (5) All vibrations are strictly harmonic

freq.      18.99  E(vib)   ...       0.57 
freq.      27.00  E(vib)   ...       0.55 
freq.      29.65  E(vib)   ...       0.55 
freq.      33.34  E(vib)   ...       0.55 
freq.      45.31  E(vib)   ...       0.53 
freq.      59.55  E(vib)   ...       0.51 
freq.      60.89  E(vib)   ...       0.51 
freq.      75.64  E(vib)   ...       0.49 
freq.      88.18  E(vib)   ...       0.48 
freq.      92.05  E(vib)   ...       0.47 
freq.     109.88  E(vib)   ...       0.45 
freq.     127.02  E(vib)   ...       0.43 
freq.     147.05  E(vib)   ...       0.41 
freq.     150.21  E(vib)   ...       0.40 
freq.     162.50  E(vib)   ...       0.39 
freq.     169.76  E(vib)   ...       0.38 
freq.     183.13  E(vib)   ...       0.37 
freq.     190.42  E(vib)   ...       0.36 
freq.     220.25  E(vib)   ...       0.33 
freq.     236.16  E(vib)   ...       0.32 
freq.     244.25  E(vib)   ...       0.31 
freq.     253.97  E(vib)   ...       0.30 
freq.     291.83  E(vib)   ...       0.27 
freq.     306.20  E(vib)   ...       0.26 
freq.     330.83  E(vib)   ...       0.24 
freq.     348.84  E(vib)   ...       0.23 
freq.     364.83  E(vib)   ...       0.22 
freq.     377.08  E(vib)   ...       0.21 
freq.     381.36  E(vib)   ...       0.21 
freq.     404.42  E(vib)   ...       0.19 
freq.     407.44  E(vib)   ...       0.19 
freq.     423.50  E(vib)   ...       0.18 
freq.     436.81  E(vib)   ...       0.17 
freq.     444.48  E(vib)   ...       0.17 
freq.     458.22  E(vib)   ...       0.16 
freq.     481.84  E(vib)   ...       0.15 
freq.     493.11  E(vib)   ...       0.14 
freq.     501.89  E(vib)   ...       0.14 
freq.     520.22  E(vib)   ...       0.13 
freq.     537.40  E(vib)   ...       0.12 
freq.     548.09  E(vib)   ...       0.12 
freq.     549.57  E(vib)   ...       0.12 
freq.     556.69  E(vib)   ...       0.12 
freq.     568.71  E(vib)   ...       0.11 
freq.     594.73  E(vib)   ...       0.10 
freq.     596.40  E(vib)   ...       0.10 
freq.     611.82  E(vib)   ...       0.10 
freq.     649.57  E(vib)   ...       0.08 
freq.     659.69  E(vib)   ...       0.08 
freq.     663.49  E(vib)   ...       0.08 
freq.     668.85  E(vib)   ...       0.08 
freq.     689.83  E(vib)   ...       0.07 
freq.     697.43  E(vib)   ...       0.07 
freq.     711.32  E(vib)   ...       0.07 
freq.     716.56  E(vib)   ...       0.07 
freq.     729.20  E(vib)   ...       0.06 
freq.     729.96  E(vib)   ...       0.06 
freq.     732.44  E(vib)   ...       0.06 
freq.     759.70  E(vib)   ...       0.06 
freq.     791.95  E(vib)   ...       0.05 
freq.     795.93  E(vib)   ...       0.05 
freq.     803.62  E(vib)   ...       0.05 
freq.     814.17  E(vib)   ...       0.05 
freq.     828.94  E(vib)   ...       0.04 
freq.     834.73  E(vib)   ...       0.04 
freq.     841.24  E(vib)   ...       0.04 
freq.     886.69  E(vib)   ...       0.04 
freq.     903.20  E(vib)   ...       0.03 
freq.     907.07  E(vib)   ...       0.03 
freq.     918.01  E(vib)   ...       0.03 
freq.     922.76  E(vib)   ...       0.03 
freq.     939.47  E(vib)   ...       0.03 
freq.     948.64  E(vib)   ...       0.03 
freq.     970.66  E(vib)   ...       0.03 
freq.    1002.29  E(vib)   ...       0.02 
freq.    1010.12  E(vib)   ...       0.02 
freq.    1025.32  E(vib)   ...       0.02 
freq.    1037.83  E(vib)   ...       0.02 
freq.    1056.98  E(vib)   ...       0.02 
freq.    1058.73  E(vib)   ...       0.02 
freq.    1089.22  E(vib)   ...       0.02 
freq.    1107.38  E(vib)   ...       0.02 
freq.    1115.46  E(vib)   ...       0.01 
freq.    1145.50  E(vib)   ...       0.01 
freq.    1155.29  E(vib)   ...       0.01 
freq.    1162.69  E(vib)   ...       0.01 
freq.    1172.41  E(vib)   ...       0.01 
freq.    1184.96  E(vib)   ...       0.01 
freq.    1207.40  E(vib)   ...       0.01 
freq.    1211.20  E(vib)   ...       0.01 
freq.    1238.96  E(vib)   ...       0.01 
freq.    1253.78  E(vib)   ...       0.01 
freq.    1256.01  E(vib)   ...       0.01 
freq.    1270.05  E(vib)   ...       0.01 
freq.    1286.79  E(vib)   ...       0.01 
freq.    1297.38  E(vib)   ...       0.01 
freq.    1318.66  E(vib)   ...       0.01 
freq.    1329.28  E(vib)   ...       0.01 
freq.    1330.99  E(vib)   ...       0.01 
freq.    1334.74  E(vib)   ...       0.01 
freq.    1338.80  E(vib)   ...       0.01 
freq.    1349.81  E(vib)   ...       0.01 
freq.    1354.00  E(vib)   ...       0.01 
freq.    1366.04  E(vib)   ...       0.01 
freq.    1374.51  E(vib)   ...       0.01 
freq.    1378.91  E(vib)   ...       0.01 
freq.    1384.36  E(vib)   ...       0.00 
freq.    1418.11  E(vib)   ...       0.00 
freq.    1446.27  E(vib)   ...       0.00 
freq.    1472.58  E(vib)   ...       0.00 
freq.    1482.73  E(vib)   ...       0.00 
freq.    1486.82  E(vib)   ...       0.00 
freq.    1490.48  E(vib)   ...       0.00 
freq.    1498.40  E(vib)   ...       0.00 
freq.    1518.64  E(vib)   ...       0.00 
freq.    1522.60  E(vib)   ...       0.00 
freq.    1531.63  E(vib)   ...       0.00 
freq.    1548.48  E(vib)   ...       0.00 
freq.    1551.45  E(vib)   ...       0.00 
freq.    1584.54  E(vib)   ...       0.00 
freq.    1610.55  E(vib)   ...       0.00 
freq.    1634.53  E(vib)   ...       0.00 
freq.    1644.22  E(vib)   ...       0.00 
freq.    1678.06  E(vib)   ...       0.00 
freq.    1693.57  E(vib)   ...       0.00 
freq.    1695.68  E(vib)   ...       0.00 
freq.    1721.62  E(vib)   ...       0.00 
freq.    1773.29  E(vib)   ...       0.00 
freq.    2883.15  E(vib)   ...       0.00 
freq.    2998.43  E(vib)   ...       0.00 
freq.    3002.18  E(vib)   ...       0.00 
freq.    3035.93  E(vib)   ...       0.00 
freq.    3036.65  E(vib)   ...       0.00 
freq.    3037.01  E(vib)   ...       0.00 
freq.    3080.57  E(vib)   ...       0.00 
freq.    3085.57  E(vib)   ...       0.00 
freq.    3090.28  E(vib)   ...       0.00 
freq.    3119.31  E(vib)   ...       0.00 
freq.    3136.83  E(vib)   ...       0.00 
freq.    3142.28  E(vib)   ...       0.00 
freq.    3157.57  E(vib)   ...       0.00 
freq.    3168.52  E(vib)   ...       0.00 
freq.    3541.17  E(vib)   ...       0.00 
freq.    3542.09  E(vib)   ...       0.00 
freq.    3580.40  E(vib)   ...       0.00 
freq.    3661.05  E(vib)   ...       0.00 
freq.    3670.09  E(vib)   ...       0.00 

------------
INNER ENERGY
------------

The inner energy is: U= E(el) + E(ZPE) + E(vib) + E(rot) + E(trans)
    E(el)   - is the total energy from the electronic structure calculation
              = E(kin-el) + E(nuc-el) + E(el-el) + E(nuc-nuc)
    E(ZPE)  - the the zero temperature vibrational energy from the frequency calculation
    E(vib)  - the the finite temperature correction to E(ZPE) due to population
              of excited vibrational states
    E(rot)  - is the rotational thermal energy
    E(trans)- is the translational thermal energy

Summary of contributions to the inner energy U:
Electronic energy                ...  -1569.48804170 Eh
Zero point energy                ...      0.38718777 Eh     242.96 kcal/mol
Thermal vibrational correction   ...      0.02493440 Eh      15.65 kcal/mol
Thermal rotational correction    ...      0.00141627 Eh       0.89 kcal/mol
Thermal translational correction ...      0.00141627 Eh       0.89 kcal/mol
-----------------------------------------------------------------------
Total thermal energy                  -1569.07308700 Eh


Summary of corrections to the electronic energy:
(perhaps to be used in another calculation)
Total thermal correction                  0.02776694 Eh      17.42 kcal/mol
Non-thermal (ZPE) correction              0.38718777 Eh     242.96 kcal/mol
-----------------------------------------------------------------------
Total correction                          0.41495471 Eh     260.39 kcal/mol


--------
ENTHALPY
--------

The enthalpy is H = U + kB*T
                kB is Boltzmann's constant
Total thermal energy              ...  -1569.07308700 Eh 
Thermal Enthalpy correction       ...      0.00094421 Eh       0.59 kcal/mol
-----------------------------------------------------------------------
Total Enthalpy                    ...  -1569.07214279 Eh


Note: Only C1 symmetry has been detected, increase convergence thresholds 
      if your molecule has a higher symmetry. Symmetry factor of 1.0 is   
      used for the rotational entropy correction. 
 

Note: Rotational entropy computed according to Herzberg 
Infrared and Raman Spectra, Chapter V,1, Van Nostrand Reinhold, 1945 
Point Group:  C1, Symmetry Number:   1  
Rotational constants in cm-1:     0.007079     0.003588     0.002759 

Vibrational entropy computed according to the QRRHO of S. Grimme
Chem.Eur.J. 2012 18 9955 using a reference frequency of 100.0 cm-1


-------
ENTROPY
-------

The entropy contributions are T*S = T*(S(el)+S(vib)+S(rot)+S(trans))
     S(el)   - electronic entropy
     S(vib)  - vibrational entropy
     S(rot)  - rotational entropy
     S(trans)- translational entropy
The entropies will be listed as multiplied by the temperature to get
units of energy

Electronic entropy                ...      0.00000000 Eh      0.00 kcal/mol
Vibrational entropy               ...      0.04431713 Eh     27.81 kcal/mol
Rotational entropy                ...      0.01728778 Eh     10.85 kcal/mol
Translational entropy             ...      0.02097411 Eh     13.16 kcal/mol
-----------------------------------------------------------------------
Final entropy term                ...      0.08257902 Eh     51.82 kcal/mol

In case the symmetry of your molecule has not been determined correctly
or in case you have a reason to use a different symmetry number we print 
out the resulting rotational entropy values for sn=1,12:

 non-linear molecules -----------------------------------
|  sn= 1 | S(rot)=       0.01728778 Eh     10.85 kcal/mol|
|  sn= 2 | S(rot)=       0.01663332 Eh     10.44 kcal/mol|
|  sn= 3 | S(rot)=       0.01625049 Eh     10.20 kcal/mol|
|  sn= 4 | S(rot)=       0.01597887 Eh     10.03 kcal/mol|
|  sn= 5 | S(rot)=       0.01576818 Eh      9.89 kcal/mol|
|  sn= 6 | S(rot)=       0.01559603 Eh      9.79 kcal/mol|
|  sn= 7 | S(rot)=       0.01545049 Eh      9.70 kcal/mol|
|  sn= 8 | S(rot)=       0.01532441 Eh      9.62 kcal/mol|
|  sn= 9 | S(rot)=       0.01521320 Eh      9.55 kcal/mol|
|  sn=10 | S(rot)=       0.01511372 Eh      9.48 kcal/mol|
|  sn=11 | S(rot)=       0.01502373 Eh      9.43 kcal/mol|
|  sn=12 | S(rot)=       0.01494158 Eh      9.38 kcal/mol|
 linear molecules ---------------------------------------
|  Dinfh | S(rot)=       0.01088965 Eh      6.83 kcal/mol|
|  Cinfv | S(rot)=       0.01154410 Eh      7.24 kcal/mol|
 --------------------------------------------------------


-------------------
GIBBS FREE ENERGY
-------------------

The Gibbs free energy is G = H - T*S

Total enthalpy                    ...  -1569.07214279 Eh 
Total entropy correction          ...     -0.08257902 Eh    -51.82 kcal/mol
-----------------------------------------------------------------------
Final Gibbs free energy         ...  -1569.15472181 Eh

For completeness - the Gibbs free energy minus the electronic energy
G-E(el)                           ...      0.33331989 Eh    209.16 kcal/mol


Maximum memory used throughout the entire PROP-calculation: 194.4 MB

--------------------------------
SUGGESTED CITATIONS FOR THIS RUN
--------------------------------

Below you find a list of papers that are relevant to this ORCA run
We neither can nor want to force you to cite these papers, but we appreciate if you do
You receive ORCA, which is the product of decades of hard work by many enthusiastic individuals, for free
The only thing we kindly ask in return is that you cite our papers,
We deeply appreciate it, if you show your appreciation for ORCA by not just citing the generic ORCA reference.

Please note that relegating all ORCA citations to the supporting information does *not* help us.
SI sections are not indexed - citations you put there will not count into any citation statistics
But we need these citations in order to attract the funding resources that allow us to do what we are doing

Therefore, if you are a happy ORCA user, please consider citing a few of the papers listed below in the main body of your paper

In addition to the list printed below, the program has created the file m1_00_Vitamin_B9-GFN1_00016-B97-3C-TZ.bibtex that contains the list in bibtex format
You can import this file easily into all common literature databanks and citation aid programs


List of essential papers. We consider these as the minimum necessary citations

  1. Neese,F.
     Software update: the ORCA program system, version 5.0
     WIRES Comput. Molec. Sci., 2022 12(1)e1606
     doi.org/10.1002/wcms.1606

List of papers to cite with high priority. The work reported in these papers was absolutely
necessary for this run to complete.
Our perspective: the developers of density functionals and basis sets usually get cited in chemistry papers
Good! But without the algorithms to do something with them, the functionals or basis sets would not do anything.
Hence, in our opinion, the algorithm design and method developments papers are equally worthy of getting cited

  1. Neese,F.
     An improvement of the resolution of the identity approximation for the formation of the Coulomb matrix
     J. Comp. Chem., 2003 24(14)1740-1747
     doi.org/10.1002/jcc.10318
  2. Bykov,D.; Petrenko,T.; Izsak,R.; Kossmann,S.; Becker,U.; Valeev,E.; Neese,F.
     Efficient implementation of the analytic second derivatives of Hartree-Fock and hybrid DFT energies: a detailed analysis of different approximations
     Molec. Phys., 2015 113 1961-1977
     doi.org/10.1080/00268976.2015.1025114
  3. Neese,F.
     The SHARK Integral Generation and Digestion System
     J. Comp. Chem., 2022  1-16
     doi.org/10.1002/jcc.26942
  4. Grimme,S.; Antony,J.; Ehrlich,S.; Krieg,H.
     A consistent and accurate ab initio parametrization of density functional dispersion correction (DFT-D) for the 94 elements H-Pu
     J. Chem. Phys., 2010 132 154104
     doi.org/10.1063/1.3382344
  5. Grimme,S.; Ehrlich,S.; Goerigk,L.
     Effect of the damping function in dispersion corrected density functional theory
     J. Comput. Chem., 2011 32(7)1456-1465
     doi.org/10.1002/jcc.21759

List of suggested additional citations. These are papers that are important in the 'surrounding' of 
of this run, or papers that preceded the highly important papers. If you like your results we are grateful for a citation.

  1. Neese,F.
     The ORCA program system
     WIRES Comput. Molec. Sci., 2012 2(1)73-78
     doi.org/10.1002/wcms.81
  2. Neese,F.
     Software update: the ORCA program system, version 4.0
     WIRES Comput. Molec. Sci., 2018 8(1)1-6
     doi.org/10.1002/wcms.1327
  3. Neese,F.; Wennmohs,F.; Becker,U.; Riplinger,C.
     The ORCA quantum chemistry program package
     J. Chem. Phys., 2020 152 Art. No. L224108
     doi.org/10.1063/5.0004608

List of optional additional citations

  1. Neese,F.
     Approximate second-order SCF convergence for spin unrestricted wavefunctions
     Chem. Phys. Lett., 2000 325(1-3)93-98
     doi.org/10.1016/s0009-2614(00)00662-x

Timings for individual modules:

Sum of individual times          ...     1793.273 sec (=  29.888 min)
Startup calculation              ...      142.537 sec (=   2.376 min)   7.9 %
SCF iterations                   ...      544.062 sec (=   9.068 min)  30.3 %
Property integrals               ...      287.682 sec (=   4.795 min)  16.0 %
SCF Response                     ...      452.675 sec (=   7.545 min)  25.2 %
Property calculations            ...      101.420 sec (=   1.690 min)   5.7 %
SCF Gradient evaluation          ...      264.497 sec (=   4.408 min)  14.7 %
Geometry relaxation              ...        0.399 sec (=   0.007 min)   0.0 %
                             ****ORCA TERMINATED NORMALLY****
TOTAL RUN TIME: 0 days 0 hours 29 minutes 58 seconds 525 msec
