
                                 *****************
                                 * O   R   C   A *
                                 *****************

                                            #,                                       
                                            ###                                      
                                            ####                                     
                                            #####                                    
                                            ######                                   
                                           ########,                                 
                                     ,,################,,,,,                         
                               ,,#################################,,                 
                          ,,##########################################,,             
                       ,#########################################, ''#####,          
                    ,#############################################,,   '####,        
                  ,##################################################,,,,####,       
                ,###########''''           ''''###############################       
              ,#####''   ,,,,##########,,,,          '''####'''          '####       
            ,##' ,,,,###########################,,,                        '##       
           ' ,,###''''                  '''############,,,                           
         ,,##''                                '''############,,,,        ,,,,,,###''
      ,#''                                            '''#######################'''  
     '                                                          ''''####''''         
             ,#######,   #######,   ,#######,      ##                                
            ,#'     '#,  ##    ##  ,#'     '#,    #''#        ,####,   ,####,        
            ##       ##  ##   ,#'  ##            #'  '#       #'       #'  '#        
            ##       ##  #######   ##           ,######,      #####,   #    #        
            '#,     ,#'  ##    ##  '#,     ,#' ,#      #,     #,   #   #,  ,#        
             '#######'   ##     ##  '#######'  #'      '#     '####' # '####'        



                #########################################################
                #                        -***-                          #
                #          Department of theory and spectroscopy        #
                #                                                       #
                #                      Frank Neese                      #
                #                                                       #
                #     Directorship, Architecture, Infrastructure        #
                #                    SHARK, DRIVERS                     #
                #        Core code/Algorithms in most modules           #
                #                                                       #
                #        Max Planck Institute fuer Kohlenforschung      #
                #                Kaiser Wilhelm Platz 1                 #
                #                 D-45470 Muelheim/Ruhr                 #
                #                      Germany                          #
                #                                                       #
                #                  All rights reserved                  #
                #                        -***-                          #
                #########################################################


                         Program Version 6.0.1  -  RELEASE   -


 With contributions from (in alphabetic order):
[Max-Planck-Institut fuer Kohlenforschung]                               
  Daniel Aravena         : Magnetic Suceptibility                        
  Michael Atanasov       : Ab Initio Ligand Field Theory (pilot matlab implementation)
  Alexander A. Auer      : GIAO ZORA, VPT2 properties, NMR spectrum      
  Ute Becker             : All parallelization in ORCA, NUMFREQ, NUMCALC 
  Giovanni Bistoni       : ED, misc. LED, open-shell LED, HFLD           
  Martin Brehm           : Molecular dynamics                            
  Dmytro Bykov           : pre 5.0 version of the SCF Hessian            
  Marcos Casanova-Páez   : Triplet and SCS-CIS(D). UHF-(DLPNO)-IP/EA/STEOM-CCSD. UHF-CVS-IP/STEOM-CCSD   
  Vijay G. Chilkuri      : MRCI spin determinant printing, contributions to CSF-ICE 
  Pauline Colinet        : FMM embedding                                 
  Dipayan Datta          : RHF DLPNO-CCSD density                        
  Achintya Kumar Dutta   : EOM-CC, STEOM-CC                              
  Nicolas Foglia         : Exact transition moments, OPA infrastructure, MCD improvements    
  Dmitry Ganyushin       : Spin-Orbit,Spin-Spin,Magnetic field MRCI      
  Miquel Garcia-Rates    : C-PCM and meta-GGA Hessian, CCSD/C-PCM, Gaussian charge scheme 
  Tiago L. C. Gouveia    : GS-ROHF, GS-ROCIS                             
  Yang Guo               : DLPNO-NEVPT2, F12-NEVPT2, CIM, IAO-localization        
  Andreas Hansen         : Spin unrestricted coupled pair/coupled cluster methods 
  Ingolf Harden          : AUTO-CI MPn and infrastructure                
  Benjamin Helmich-Paris : MC-RPA, TRAH-(SCF,CASSCF), AVAS, COSX integrals, SCF dyn. polar. 
  Lee Huntington         : MR-EOM, pCC                                   
  Robert Izsak           : Overlap fitted RIJCOSX, COSX-SCS-MP3, EOM     
  Riya Kayal             : Wick's Theorem for AUTO-CI, AUTO-CI UHF-CCSDT 
  Emily Kempfer          : AUTO-CI, RHF CISDT and CCSDT                  
  Christian Kollmar      : KDIIS, OOCD, Brueckner-CCSD(T), CCSD density, CASPT2, CASPT2-K, improved NEVPT2 
  Axel Koslowski         : Symmetry handling                             
  Simone Kossmann        : meta-GGA functionals, TD-DFT gradient, OOMP2, (MP2 Hessian; deprecated post 5.0) 
  Lucas Lang             : DCDCAS                                        
  Marvin Lechner         : AUTO-CI (C++ implementation), FIC-MRCC        
  Spencer Leger          : CASSCF response                               
  Dagmar Lenk            : GEPOL surface, SMD, ORCA-2-JSON               
  Dimitrios Liakos       : Extrapolation schemes; Compound Job, initial MDCI parallelization 
  Dimitrios Manganas     : Further ROCIS development; embedding schemes. LFT, Crystal Embedding 
  Dimitrios Pantazis     : SARC Basis sets                               
  Anastasios Papadopoulos: AUTO-CI, single reference methods and gradients 
  Taras Petrenko         : pre 6.0 DFT Hessian and TD-DFT gradient, (ASA, deprecated), ECA, 1-Electron XAS/XES, NRVS 
  Peter Pinski           : DLPNO-MP2, DLPNO-MP2 Gradient                 
  Christoph Reimann      : Effective Core Potentials                     
  Marius Retegan         : Local ZFS, SOC                                
  Christoph Riplinger    : Optimizer, TS searches, QM/MM, DLPNO-CCSD(T), (RO)-DLPNO pert. Triples 
  Michael Roemelt        : Original ROCIS implementation                 
  Masaaki Saitow         : Open-shell DLPNO-CCSD energy and density      
  Barbara Sandhoefer     : DKH picture change effects                    
  Kantharuban Sivalingam : CASSCF convergence/infrastructure, NEVPT2 and variants, FIC-MRCI 
  Bernardo de Souza      : ESD, SOC TD-DFT                               
  Georgi L. Stoychev     : AutoAux, RI-MP2 NMR, DLPNO-MP2 response, X2C  
  Van Anh Tran           : RI-MP2 g-tensors                              
  Willem Van den Heuvel  : Paramagnetic NMR                              
  Zikuan Wang            : NOTCH, Electric field optimization            
  Frank Wennmohs         : Technical directorship and infrastructure     
  Hang Xu                : AUTO-CI-Response properties                   
                                                                         
[FACCTs GmbH]                                                            
  Markus Bursch, Miquel Garcia-Rates, Christoph Riplinger, Bernardo de Souza, Georgi L. Stoychev 
                                                                 
  APM, Basis sets (HGBS, AHGBS, def-TZVP (Ac-Lr), def2-XVPD (La-Lu)), CI-OPT, improved COSX, DLPNO-Multilevel,           
  DOCKER, DRACO, updates on ESD, GOAT, IRC, LR-CPCM, MBIS, meta-GGA TD-DFT gradient, ML-optimized integration grids, 
  MM, NACMEs, nearIR, NEB, NEB-TS, NL-DFT gradient (VV10), 2- and 3-layer-ONIOM, interface openCOSMO-RS, QMMM,   
  Crystal-QMMM, SF, symmetry and pop. for TD-DFT, r2SCAN hybrids, SOLVATOR                                   
                                                                         
[Other institutions]                                                     
  V. Asgeirsson          : NEB                                           
  Christoph Bannwarth    : sTDA-DFT, sTD-DFT, PBEh-3c, B97-3c, D3        
  Sebastian Ehlert       : rSCAN, r2SCAN, r2SCAN-3c, D4, dhf basis sets  
  Marvin Friede          : D4 for Fr, Ra, Ac-Lr                          
  Lars Goerigk           : TD-DFT with DH, B97 family of functionals     
  Stefan Grimme          : VdW corrections, initial TS optimization, DFT functionals, gCP, sTDA/sTD-DF 
  Waldemar Hujo          : DFT-NL                                        
  H. Jonsson             : NEB                                           
  Holger Kruse           : gCP                                           
  Marcel Mueller         : wB97X-3c, vDZP basis set                      
  Hagen Neugebauer       : wr2SCAN                                       
  Tobias Risthaus        : range-separated hybrid DFT                    
  Lukas Wittmann         : regularized MP2, r2SCAN double-hybrids, wr2SCAN        
                                                                         
We gratefully acknowledge several colleagues who have allowed us to      
interface, adapt or use parts of their codes:                            
  Ed Valeev, F. Pavosevic, A. Kumar             : LibInt (2-el integral package), F12 methods 
  Garnet Chan, S. Sharma, J. Yang, R. Olivares  : DMRG                   
  Ulf Ekstrom                                   : XCFun DFT Library      
  Mihaly Kallay                                 : mrcc  (arbitrary order and MRCC methods)
  Frank Weinhold                                : gennbo (NPA and NBO analysis)           
  Simon Mueller                                 : openCOSMO-RS                            
  Christopher J. Cramer and Donald G. Truhlar   : smd solvation model                     
  S Lehtola, MJT Oliveira, MAL Marques          : LibXC Library                           
  Liviu Ungur et al                             : ANISO software                          


 Your calculation uses the libint2 library for the computation of 2-el integrals
 For citations please refer to: http://libint.valeyev.net

 Your ORCA version has been built with support for libXC version: 6.2.2
 For citations please refer to: https://libxc.gitlab.io

 This ORCA versions uses:
   CBLAS   interface :  Fast vector & matrix operations
   LAPACKE interface :  Fast linear algebra routines
   SCALAPACK package :  Parallel linear algebra routines
   Shared memory     :  Shared parallel matrices
   BLAS/LAPACK       :  OpenBLAS 0.3.27  USE64BITINT DYNAMIC_ARCH NO_AFFINITY Zen SINGLE_THREADED
        Core in use  :  Zen
   Copyright (c) 2011-2014, The OpenBLAS Project


NOTE: MaxCore=6000 MB was set to SCF,MP2,MDCI,CIPSI,MRCI and CIS
      => If you want to overwrite this, your respective input block should be placed after the MaxCore statement
Your calculation utilizes the atom-pairwise dispersion correction
with the Becke-Johnson damping scheme (D3BJ)


Your calculation employs the composite approach B97-3c by Grimme and coworkers.
For the correct reference, please check the publication list of the Grimme group:
http://www.thch.uni-bonn.de/tc/index.php?section=publikationen&subsection=grimme#2017
   

XCFun DFT library Copyright 2009-2010 Ulf Ekstrom and contributors.
See http://admol.org/xcfun for more information.
This is free software; see the source code for copying conditions.
There is ABSOLUTELY NO WARRANTY; not even for MERCHANTABILITY or FITNESS FOR A PARTICULAR PURPOSE.
For details see the documentation.
Scientific users of this library should cite U. Ekstrom, L. Visscher, R. Bast, A. J. Thorvaldsen and K. Ruud;
J.Chem.Theor.Comp. 2010, DOI: 10.1021/ct100117s
XCFun Version 0.99 

================================================================================

----- Orbital basis set information -----
Your calculation utilizes the basis: def2-mTZVP
----- AuxJ basis set information -----
Your calculation utilizes the basis: def2-mTZVP/J
================================================================================
                                        WARNINGS
                       Please study these warnings very carefully!
================================================================================


WARNING: Geometry Optimization
  ===> : Switching off AutoStart
         For restart on a previous wavefunction, please use MOREAD

================================================================================
                                       INPUT FILE
================================================================================
NAME = m1_00_Vitamin_B9-GFN1_00000-B97-3C-TZ.inp
|  1> %pal nprocs 16 end
|  2> %MaxCore 6000
|  3> # put your comments here
|  4> ! B97-3C  OPT  FREQ DEFGRID3 NOTRAH
|  5> %scf MaxIter 800 end
|  6> %output
|  7> Print [P_Hirshfeld] 1
|  8> end
|  9> %geom
| 10> MaxIter 3000
| 11>  TolE 1e-6 #TolE 5e-6 Energy change (a.u.)
| 12>  TolRMSG 3e-5 #TolRMSG 1e-4 RMS gradient (a.u.)
| 13>  TolMaxG 1e-4 #TolMaxG 3e-3 Max. element of gradient (a.u.)
| 14>  TolRMSD 2e-3 #TolRMSD 2e-3 RMS displacement (a.u.)
| 15>  TolMaxD 4e-3 #TolMaxD 4e-3 Max. displacement (a.u.)
| 16> end
| 17> * xyz 0 1
| 18>  O -2.18294007881006 -5.68506198522214 -7.82392396288729
| 19>  O -0.46680747876574 -3.96613191953641 -7.32598508710700
| 20>  O -3.92022431033255 -6.24234798398238 -6.58000465782174
| 21>  O -5.61792958376612 -4.32526856286768 -4.73700416920906
| 22>  O -3.88681281206611 -3.30167989405972 -3.78045484513586
| 23>  O -5.80618629676263 -2.18359685159869 -6.13590286603419
| 24>  N -1.85301011792587 -3.90069960203824 -5.55471597037311
| 25>  N -2.48804849670530 1.92984870643596 -8.07414620835741
| 26>  N -4.88714467750584 -0.16958416656935 -7.89403819442652
| 27>  N -4.26882105575383 -0.97594583087703 -10.49194228290800
| 28>  N -5.27887431212039 -3.72812528031466 -7.70971804870934
| 29>  N -4.59404307039494 -3.18922470606403 -9.89971594643390
| 30>  N -4.78699345822578 -5.37911893115941 -9.25132948691408
| 31>  C -1.94160072510675 -5.35918721256515 -5.46556799032064
| 32>  C -2.42741478807204 -5.79272027282754 -4.07468986697170
| 33>  C -3.93513772214383 -5.69655325185850 -3.78502113791356
| 34>  C -1.15248117470980 -3.29673297546982 -6.52990563577397
| 35>  C -1.32955781610366 -1.84503469634746 -6.69270048094169
| 36>  C -2.78916473263071 -5.82202415979689 -6.67269156039186
| 37>  C -2.01913988419192 0.73314733622725 -7.52571444325888
| 38>  C -3.95255746875512 2.01649882014751 -8.24510026331832
| 39>  C -2.27883219868016 -1.09896496405653 -5.98194768840722
| 40>  C -0.64509018804655 -1.22713666914840 -7.74886648208675
| 41>  C -2.61443880036042 0.17602548442485 -6.38927377992467
| 42>  C -0.97080685023549 0.05067649732318 -8.15258425608679
| 43>  C -4.48002123215972 -4.31467853934762 -4.08712272385014
| 44>  C -4.41827296201167 0.68672750261901 -8.78634817019510
| 45>  C -5.01333926980314 -1.45015286591409 -8.26943134643742
| 46>  C -4.15769802872484 0.27598396808886 -10.10510564928776
| 47>  C -4.63879356231319 -1.87688235081165 -9.55947978495842
| 48>  C -5.41528070716625 -2.42941458223943 -7.27217835858724
| 49>  C -4.86311915209163 -4.06310038962551 -8.97363819736556
| 50>  H -0.92623572698695 -5.75522685855338 -5.61498325852548
| 51>  H -2.12341156042481 -6.83276828961708 -3.92710499159525
| 52>  H -1.89158503001907 -5.18264988573998 -3.34083318685062
| 53>  H -4.08293057480704 -5.88298670292249 -2.71735700486207
| 54>  H -4.50015281165590 -6.44386901494449 -4.34136842042609
| 55>  H -2.45030334650761 -3.37323299494862 -4.93094347790680
| 56>  H -4.15347911641357 2.84559995010726 -8.92692546982535
| 57>  H -4.42403125337713 2.21583344264522 -7.28043782919787
| 58>  H -2.80668916569267 -1.52319939309704 -5.13587121179761
| 59>  H 0.10978678623699 -1.79217906529977 -8.28436447923684
| 60>  H -2.02306796846190 2.12316639002960 -8.95736944359764
| 61>  H -3.39264262148501 0.71518765758185 -5.86433254012591
| 62>  H -0.46781470119119 0.50010345334831 -9.00197807534922
| 63>  H -3.83218403536400 0.99616973627447 -10.85083470379717
| 64>  H -1.33900809693566 -5.08542801452113 -7.73224429780397
| 65>  H -5.44907892233889 -4.47224703005759 -7.04108571109776
| 66>  H -5.81929564091188 -3.39201812372910 -5.09052578723230
| 67>  H -4.65688385492596 -6.00861393547558 -8.47087630740995
| 68>  H -4.25866234658793 -5.59589599183158 -10.08095526080876
| 69> *
| 70> 
| 71> 
| 72> 
| 73> 
| 74>                          ****END OF INPUT****
================================================================================

                       *****************************
                       * Geometry Optimization Run *
                       *****************************

Geometry optimization settings:
Update method            Update   .... BFGS
Choice of coordinates    CoordSys .... (2022) Redundant Internals
Initial Hessian          InHess   .... Almloef's Model
Max. no of cycles        MaxIter  .... 3000

Convergence Tolerances:
Energy Change            TolE     ....  1.0000e-06 Eh
Max. Gradient            TolMAXG  ....  1.0000e-04 Eh/bohr
RMS Gradient             TolRMSG  ....  3.0000e-05 Eh/bohr
Max. Displacement        TolMAXD  ....  4.0000e-03 bohr
RMS Displacement         TolRMSD  ....  2.0000e-03 bohr
Strict Convergence                .... False

------------------------------------------------------------------------------
                        ORCA OPTIMIZATION COORDINATE SETUP
------------------------------------------------------------------------------

The optimization will be done in redundant internal coordinates (2022)
Making redundant internal coordinates   ...  (2022 redundants) done
Evaluating the initial hessian          ...  (Almloef) done
Evaluating the coordinates              ...  done
Calculating the B-matrix                .... done
Calculating the G-matrix                .... done
Diagonalizing the G-matrix              .... done
Small eigenvalue found = 4.676e-03
Small eigenvalue found = 9.399e-03
Small eigenvalue found = 1.117e-02
Small eigenvalue found = 1.761e-02
Small eigenvalue found = 2.791e-02
The first mode is                       ....  112
The number of degrees of freedom        ....  147

    -----------------------------------------------------------------
                    Redundant Internal Coordinates


    -----------------------------------------------------------------
         Definition                    Initial Value    Approx d2E/dq
    -----------------------------------------------------------------
      1. B(C  13,N   6)                  1.4639         0.426564   
      2. B(C  14,C  13)                  1.5357         0.365775   
      3. B(C  15,C  14)                  1.5383         0.362348   
      4. B(C  16,N   6)                  1.3441         0.662463   
      5. B(C  16,O   1)                  1.2458         0.950512   
      6. B(C  17,C  16)                  1.4715         0.463153   
      7. B(C  18,O   0)                  1.3083         0.755528   
      8. B(C  18,C  13)                  1.5459         0.352411   
      9. B(C  18,O   2)                  1.2102         1.083307   
     10. B(C  19,N   7)                  1.3974         0.544575   
     11. B(C  20,N   7)                  1.4770         0.406516   
     12. B(C  21,C  17)                  1.4010         0.599965   
     13. B(C  22,C  17)                  1.4021         0.597713   
     14. B(C  23,C  19)                  1.3987         0.605222   
     15. B(C  23,C  21)                  1.3799         0.648394   
     16. B(C  24,C  22)                  1.3791         0.650349   
     17. B(C  24,C  19)                  1.3992         0.604054   
     18. B(C  25,C  15)                  1.5158         0.393536   
     19. B(C  25,O   4)                  1.2133         1.070981   
     20. B(C  25,O   3)                  1.3105         0.749521   
     21. B(C  26,C  20)                  1.5093         0.403020   
     22. B(C  26,N   8)                  1.3226         0.716760   
     23. B(C  27,N   8)                  1.3404         0.671416   
     24. B(C  28,C  26)                  1.4056         0.589982   
     25. B(C  28,N   9)                  1.3150         0.737015   
     26. B(C  29,N  11)                  1.3565         0.632956   
     27. B(C  29,C  27)                  1.4095         0.581667   
     28. B(C  29,N   9)                  1.3484         0.652112   
     29. B(C  30,C  27)                  1.4543         0.493324   
     30. B(C  30,N  10)                  1.3772         0.586526   
     31. B(C  30,O   5)                  1.2265         1.020222   
     32. B(C  31,N  12)                  1.3471         0.654999   
     33. B(C  31,N  11)                  1.3014         0.774832   
     34. B(C  31,N  10)                  1.3721         0.597715   
     35. B(H  32,C  13)                  1.1001         0.347031   
     36. B(H  33,C  14)                  1.0936         0.355406   
     37. B(H  34,C  14)                  1.0945         0.354247   
     38. B(H  35,C  15)                  1.0938         0.355043   
     39. B(H  36,C  15)                  1.0896         0.360619   
     40. B(H  37,O   4)                  1.8418         0.020374   
     41. B(H  37,N   6)                  1.0120         0.429596   
     42. B(H  38,C  20)                  1.0921         0.357344   
     43. B(H  39,C  20)                  1.0921         0.357385   
     44. B(H  40,C  21)                  1.0837         0.368502   
     45. B(H  41,C  22)                  1.0844         0.367618   
     46. B(H  42,N   7)                  1.0167         0.422201   
     47. B(H  43,C  23)                  1.0825         0.370126   
     48. B(H  44,C  24)                  1.0846         0.367254   
     49. B(H  45,C  28)                  1.0866         0.364602   
     50. B(H  46,O   1)                  1.4760         0.078110   
     51. B(H  46,O   0)                  1.0393         0.388522   
     52. B(H  47,O   3)                  2.3149         0.003583   
     53. B(H  47,O   2)                  2.3840         0.002781   
     54. B(H  47,N  10)                  1.0148         0.425193   
     55. B(H  48,O   4)                  2.3364         0.003311   
     56. B(H  48,O   5)                  1.5979         0.049917   
     57. B(H  48,O   3)                  1.0181         0.420056   
     58. B(H  49,O   2)                  2.0427         0.009740   
     59. B(H  49,N  12)                  1.0111         0.430981   
     60. B(H  50,N  12)                  1.0072         0.437219   
     61. A(C  18,O   0,H  46)          111.0412         0.364217   
     62. A(C  25,O   3,H  48)          109.6665         0.368616   
     63. A(C  13,N   6,H  37)          116.4905         0.336379   
     64. A(C  13,N   6,C  16)          121.5623         0.405576   
     65. A(C  16,N   6,H  37)          121.3751         0.362296   
     66. A(C  19,N   7,H  42)          110.5063         0.349414   
     67. A(C  20,N   7,H  42)          109.9851         0.332738   
     68. A(C  19,N   7,C  20)          115.3651         0.388560   
     69. A(C  26,N   8,C  27)          117.5785         0.446118   
     70. A(C  28,N   9,C  29)          117.1207         0.446013   
     71. A(C  31,N  10,H  47)          118.6049         0.355385   
     72. A(C  30,N  10,H  47)          117.7459         0.354248   
     73. A(C  30,N  10,C  31)          123.5660         0.421408   
     74. A(C  29,N  11,C  31)          117.6670         0.447650   
     75. A(C  31,N  12,H  50)          114.1857         0.362683   
     76. A(H  49,N  12,H  50)          115.7418         0.303566   
     77. A(C  31,N  12,H  49)          117.1527         0.361794   
     78. A(C  14,C  13,H  32)          108.2620         0.321246   
     79. A(C  18,C  13,H  32)          106.9904         0.319298   
     80. A(N   6,C  13,C  14)          110.8272         0.368051   
     81. A(C  14,C  13,C  18)          116.6955         0.358464   
     82. A(N   6,C  13,C  18)          106.4945         0.365710   
     83. A(N   6,C  13,H  32)          107.1310         0.327492   
     84. A(C  15,C  14,H  34)          108.5869         0.321834   
     85. A(H  33,C  14,H  34)          107.6705         0.289496   
     86. A(C  13,C  14,H  33)          107.6238         0.322503   
     87. A(C  13,C  14,C  15)          117.5771         0.360165   
     88. A(C  13,C  14,H  34)          107.1599         0.322331   
     89. A(C  15,C  14,H  33)          107.8488         0.322006   
     90. A(H  35,C  15,H  36)          108.1444         0.290260   
     91. A(C  14,C  15,H  36)          111.6673         0.322776   
     92. A(C  14,C  15,C  25)          111.8253         0.364692   
     93. A(C  25,C  15,H  36)          109.6996         0.327185   
     94. A(C  25,C  15,H  35)          107.5378         0.326347   
     95. A(C  14,C  15,H  35)          107.7923         0.321952   
     96. A(N   6,C  16,C  17)          117.4428         0.414204   
     97. A(O   1,C  16,C  17)          121.7113         0.441894   
     98. A(O   1,C  16,N   6)          120.6008         0.468523   
     99. A(C  21,C  17,C  22)          118.5704         0.428684   
    100. A(C  16,C  17,C  22)          117.3465         0.409357   
    101. A(C  16,C  17,C  21)          123.4191         0.409630   
    102. A(O   0,C  18,O   2)          122.4682         0.491730   
    103. A(O   2,C  18,C  13)          123.8215         0.430695   
    104. A(O   0,C  18,C  13)          113.6863         0.403932   
    105. A(C  23,C  19,C  24)          119.2507         0.430169   
    106. A(N   7,C  19,C  24)          119.5568         0.419371   
    107. A(N   7,C  19,C  23)          121.1432         0.419516   
    108. A(N   7,C  20,H  38)          107.4110         0.326476   
    109. A(N   7,C  20,C  26)          107.2034         0.371152   
    110. A(H  38,C  20,H  39)          109.4809         0.290144   
    111. A(C  26,C  20,H  39)          110.1431         0.327985   
    112. A(N   7,C  20,H  39)          109.6665         0.326482   
    113. A(C  26,C  20,H  38)          112.8432         0.327979   
    114. A(C  17,C  21,H  40)          121.1728         0.352325   
    115. A(C  23,C  21,H  40)          118.2740         0.356993   
    116. A(C  17,C  21,C  23)          120.4683         0.434999   
    117. A(C  17,C  22,C  24)          120.9014         0.434940   
    118. A(C  24,C  22,H  41)          120.1762         0.357030   
    119. A(C  17,C  22,H  41)          118.8295         0.351958   
    120. A(C  21,C  23,H  43)          119.4647         0.357259   
    121. A(C  19,C  23,H  43)          120.1051         0.353108   
    122. A(C  19,C  23,C  21)          120.2893         0.435683   
    123. A(C  19,C  24,C  22)          119.8509         0.435768   
    124. A(C  22,C  24,H  44)          120.2416         0.356969   
    125. A(C  19,C  24,H  44)          119.7487         0.352528   
    126. A(O   4,C  25,C  15)          122.3443         0.438433   
    127. A(O   3,C  25,C  15)          113.8035         0.411316   
    128. A(O   3,C  25,O   4)          123.8235         0.489963   
    129. A(C  20,C  26,C  28)          122.4586         0.398517   
    130. A(N   8,C  26,C  28)          120.6301         0.438696   
    131. A(N   8,C  26,C  20)          115.9674         0.409796   
    132. A(C  29,C  27,C  30)          119.8151         0.411970   
    133. A(N   8,C  27,C  30)          118.5071         0.419886   
    134. A(N   8,C  27,C  29)          121.3694         0.432456   
    135. A(C  26,C  28,H  45)          120.3804         0.350696   
    136. A(N   9,C  28,H  45)          117.0267         0.361949   
    137. A(N   9,C  28,C  26)          122.5828         0.440909   
    138. A(N  11,C  29,C  27)          122.0899         0.427901   
    139. A(N   9,C  29,C  27)          120.2372         0.430196   
    140. A(N   9,C  29,N  11)          117.6409         0.433923   
    141. A(N  10,C  30,C  27)          112.9385         0.409916   
    142. A(O   5,C  30,C  27)          126.0435         0.452752   
    143. A(O   5,C  30,N  10)          120.9899         0.464169   
    144. A(N  11,C  31,N  12)          119.8412         0.450440   
    145. A(N  10,C  31,N  12)          116.4558         0.429820   
    146. A(N  10,C  31,N  11)          123.6572         0.443030   
    147. D(C  14,C  13,N   6,H  37)    -25.2792         0.015513   
    148. D(C  18,C  13,N   6,C  16)    -68.8434         0.015513   
    149. D(C  18,C  13,N   6,H  37)    102.5948         0.015513   
    150. D(H  32,C  13,N   6,C  16)     45.3722         0.015513   
    151. D(C  14,C  13,N   6,C  16)    163.2825         0.015513   
    152. D(C  15,C  14,C  13,N   6)     79.1393         0.010711   
    153. D(C  15,C  14,C  13,H  32)   -163.6417         0.010711   
    154. D(H  33,C  14,C  13,C  18)     78.9659         0.010711   
    155. D(C  15,C  14,C  13,C  18)    -42.9543         0.010711   
    156. D(H  33,C  14,C  13,N   6)   -158.9405         0.010711   
    157. D(H  33,C  14,C  13,H  32)    -41.7215         0.010711   
    158. D(H  35,C  15,C  14,C  13)   -170.9064         0.010524   
    159. D(C  25,C  15,C  14,H  34)     68.8807         0.010524   
    160. D(C  25,C  15,C  14,H  33)   -174.7136         0.010524   
    161. D(C  25,C  15,C  14,C  13)    -52.9092         0.010524   
    162. D(H  35,C  15,C  14,H  34)    -49.1166         0.010524   
    163. D(H  35,C  15,C  14,H  33)     67.2892         0.010524   
    164. D(C  17,C  16,N   6,H  37)     -2.4736         0.035936   
    165. D(C  17,C  16,N   6,C  13)    168.5478         0.035936   
    166. D(O   1,C  16,N   6,H  37)   -176.8824         0.035936   
    167. D(O   1,C  16,N   6,C  13)     -5.8610         0.035936   
    168. D(C  22,C  17,C  16,N   6)   -177.1635         0.014610   
    169. D(C  22,C  17,C  16,O   1)     -2.8208         0.014610   
    170. D(C  21,C  17,C  16,N   6)     -6.6529         0.014610   
    171. D(C  21,C  17,C  16,O   1)    167.6898         0.014610   
    172. D(O   0,C  18,C  13,H  32)    -44.2886         0.009373   
    173. D(O   0,C  18,C  13,C  14)   -165.6479         0.009373   
    174. D(O   0,C  18,C  13,N   6)     70.0227         0.009373   
    175. D(C  13,C  18,O   0,H  46)    -13.5071         0.043423   
    176. D(O   2,C  18,C  13,N   6)   -108.2323         0.009373   
    177. D(O   2,C  18,O   0,H  46)    164.7747         0.043423   
    178. D(O   2,C  18,C  13,C  14)     16.0971         0.009373   
    179. D(C  24,C  19,N   7,H  42)      4.7660         0.023612   
    180. D(C  24,C  19,N   7,C  20)    130.2969         0.023612   
    181. D(C  23,C  19,N   7,H  42)   -172.6600         0.023612   
    182. D(C  23,C  19,N   7,C  20)    -47.1291         0.023612   
    183. D(H  39,C  20,N   7,C  19)     77.1203         0.014101   
    184. D(H  38,C  20,N   7,H  42)    -38.1842         0.014101   
    185. D(H  38,C  20,N   7,C  19)   -163.9830         0.014101   
    186. D(C  26,C  20,N   7,H  42)     83.3495         0.014101   
    187. D(C  26,C  20,N   7,C  19)    -42.4493         0.014101   
    188. D(H  40,C  21,C  17,C  22)   -177.7923         0.024815   
    189. D(H  40,C  21,C  17,C  16)     11.8064         0.024815   
    190. D(C  23,C  21,C  17,C  22)      5.6144         0.024815   
    191. D(C  23,C  21,C  17,C  16)   -164.7869         0.024815   
    192. D(H  41,C  22,C  17,C  21)    178.3508         0.024619   
    193. D(H  41,C  22,C  17,C  16)    -10.6640         0.024619   
    194. D(C  24,C  22,C  17,C  21)     -5.1483         0.024619   
    195. D(C  24,C  22,C  17,C  16)    165.8370         0.024619   
    196. D(H  43,C  23,C  21,H  40)     -0.3671         0.029262   
    197. D(H  43,C  23,C  21,C  17)    176.3233         0.029262   
    198. D(C  19,C  23,C  21,H  40)   -176.0577         0.029262   
    199. D(C  19,C  23,C  21,C  17)      0.6327         0.029262   
    200. D(H  43,C  23,C  19,C  24)    176.9295         0.025275   
    201. D(H  43,C  23,C  19,N   7)     -5.6368         0.025275   
    202. D(C  21,C  23,C  19,C  24)     -7.4076         0.025275   
    203. D(C  21,C  23,C  19,N   7)    170.0262         0.025275   
    204. D(C  19,C  24,C  22,C  17)     -1.5794         0.029451   
    205. D(H  44,C  24,C  19,C  23)   -176.7083         0.025173   
    206. D(H  44,C  24,C  19,N   7)      5.8166         0.025173   
    207. D(C  22,C  24,C  19,C  23)      7.8605         0.025173   
    208. D(C  19,C  24,C  22,H  41)    174.8746         0.029451   
    209. D(C  22,C  24,C  19,N   7)   -169.6146         0.025173   
    210. D(H  44,C  24,C  22,H  41)     -0.5338         0.029451   
    211. D(H  44,C  24,C  22,C  17)   -176.9878         0.029451   
    212. D(O   4,C  25,C  15,H  35)     75.6572         0.011511   
    213. D(O   4,C  25,C  15,C  14)    -42.4920         0.011511   
    214. D(O   3,C  25,C  15,H  36)     11.1671         0.011511   
    215. D(O   3,C  25,C  15,H  35)   -106.2230         0.011511   
    216. D(O   3,C  25,C  15,C  14)    135.6278         0.011511   
    217. D(C  15,C  25,O   3,H  48)   -167.1971         0.047169   
    218. D(O   4,C  25,O   3,H  48)     10.8909         0.047169   
    219. D(C  28,C  26,C  20,N   7)    -71.8487         0.012046   
    220. D(N   8,C  26,C  20,H  39)    -22.1783         0.012046   
    221. D(N   8,C  26,C  20,H  38)   -144.8596         0.012046   
    222. D(N   8,C  26,C  20,N   7)     97.0852         0.012046   
    223. D(C  28,C  26,N   8,C  27)      4.5038         0.038651   
    224. D(C  28,C  26,C  20,H  38)     46.2065         0.012046   
    225. D(C  20,C  26,N   8,C  27)   -164.6475         0.038651   
    226. D(C  30,C  27,N   8,C  26)    174.7102         0.033501   
    227. D(C  29,C  27,N   8,C  26)      1.1020         0.033501   
    228. D(H  45,C  28,C  26,C  20)    -15.4298         0.023954   
    229. D(H  45,C  28,C  26,N   8)    176.1390         0.023954   
    230. D(N   9,C  28,C  26,C  20)    163.3828         0.023954   
    231. D(N   9,C  28,C  26,N   8)     -5.0484         0.023954   
    232. D(H  45,C  28,N   9,C  29)    178.3119         0.041101   
    233. D(C  26,C  28,N   9,C  29)     -0.5381         0.041101   
    234. D(N  11,C  29,C  27,N   8)    171.2061         0.023251   
    235. D(N   9,C  29,C  27,C  30)    179.7855         0.023251   
    236. D(N   9,C  29,C  27,N   8)     -6.6886         0.023251   
    237. D(C  27,C  29,N  11,C  31)     -2.5157         0.029484   
    238. D(N   9,C  29,N  11,C  31)    175.4312         0.029484   
    239. D(C  27,C  29,N   9,C  28)      6.1143         0.031445   
    240. D(N  11,C  29,C  27,C  30)     -2.3197         0.023251   
    241. D(N  11,C  29,N   9,C  28)   -171.8724         0.031445   
    242. D(N  10,C  30,C  27,N   8)   -169.0526         0.016573   
    243. D(O   5,C  30,C  27,C  29)   -177.2647         0.016573   
    244. D(O   5,C  30,C  27,N   8)      9.0251         0.016573   
    245. D(C  27,C  30,N  10,H  47)    173.9491         0.027633   
    246. D(C  27,C  30,N  10,C  31)     -2.6817         0.027633   
    247. D(O   5,C  30,N  10,H  47)     -4.2378         0.027633   
    248. D(N  10,C  30,C  27,C  29)      4.6577         0.016573   
    249. D(O   5,C  30,N  10,C  31)    179.1315         0.027633   
    250. D(N  11,C  31,N  12,H  50)     17.6679         0.035060   
    251. D(N  11,C  31,N  12,H  49)    157.6125         0.035060   
    252. D(N  10,C  31,N  12,H  50)   -164.7053         0.035060   
    253. D(N  10,C  31,N  12,H  49)    -24.7607         0.035060   
    254. D(N  12,C  31,N  11,C  29)   -177.7359         0.045928   
    255. D(N  10,C  31,N  11,C  29)      4.8168         0.045928   
    256. D(N  12,C  31,N  10,H  47)      3.7266         0.028772   
    257. D(N  12,C  31,N  10,C  30)   -179.6698         0.028772   
    258. D(N  11,C  31,N  10,H  47)   -178.7465         0.028772   
    259. D(N  11,C  31,N  10,C  30)     -2.1430         0.028772   
    -----------------------------------------------------------------

Number of atoms                         .... 51
Number of degrees of freedom            .... 259


         *************************************************************
         *                GEOMETRY OPTIMIZATION CYCLE   1            *
         *************************************************************
---------------------------------
CARTESIAN COORDINATES (ANGSTROEM)
---------------------------------
  O     -2.182940   -5.685062   -7.823924
  O     -0.466807   -3.966132   -7.325985
  O     -3.920224   -6.242348   -6.580005
  O     -5.617930   -4.325269   -4.737004
  O     -3.886813   -3.301680   -3.780455
  O     -5.806186   -2.183597   -6.135903
  N     -1.853010   -3.900700   -5.554716
  N     -2.488048    1.929849   -8.074146
  N     -4.887145   -0.169584   -7.894038
  N     -4.268821   -0.975946  -10.491942
  N     -5.278874   -3.728125   -7.709718
  N     -4.594043   -3.189225   -9.899716
  N     -4.786993   -5.379119   -9.251329
  C     -1.941601   -5.359187   -5.465568
  C     -2.427415   -5.792720   -4.074690
  C     -3.935138   -5.696553   -3.785021
  C     -1.152481   -3.296733   -6.529906
  C     -1.329558   -1.845035   -6.692700
  C     -2.789165   -5.822024   -6.672692
  C     -2.019140    0.733147   -7.525714
  C     -3.952557    2.016499   -8.245100
  C     -2.278832   -1.098965   -5.981948
  C     -0.645090   -1.227137   -7.748866
  C     -2.614439    0.176025   -6.389274
  C     -0.970807    0.050676   -8.152584
  C     -4.480021   -4.314679   -4.087123
  C     -4.418273    0.686728   -8.786348
  C     -5.013339   -1.450153   -8.269431
  C     -4.157698    0.275984  -10.105106
  C     -4.638794   -1.876882   -9.559480
  C     -5.415281   -2.429415   -7.272178
  C     -4.863119   -4.063100   -8.973638
  H     -0.926236   -5.755227   -5.614983
  H     -2.123412   -6.832768   -3.927105
  H     -1.891585   -5.182650   -3.340833
  H     -4.082931   -5.882987   -2.717357
  H     -4.500153   -6.443869   -4.341368
  H     -2.450303   -3.373233   -4.930943
  H     -4.153479    2.845600   -8.926925
  H     -4.424031    2.215833   -7.280438
  H     -2.806689   -1.523199   -5.135871
  H      0.109787   -1.792179   -8.284364
  H     -2.023068    2.123166   -8.957369
  H     -3.392643    0.715188   -5.864333
  H     -0.467815    0.500103   -9.001978
  H     -3.832184    0.996170  -10.850835
  H     -1.339008   -5.085428   -7.732244
  H     -5.449079   -4.472247   -7.041086
  H     -5.819296   -3.392018   -5.090526
  H     -4.656884   -6.008614   -8.470876
  H     -4.258662   -5.595896  -10.080955

----------------------------
CARTESIAN COORDINATES (A.U.)
----------------------------
  NO LB      ZA    FRAG     MASS         X           Y           Z
   0 O     8.0000    0    15.999   -4.125159  -10.743210  -14.785074
   1 O     8.0000    0    15.999   -0.882138   -7.494903  -13.844105
   2 O     8.0000    0    15.999   -7.408150  -11.796328  -12.434407
   3 O     8.0000    0    15.999  -10.616348   -8.173573   -8.951641
   4 O     8.0000    0    15.999   -7.345012   -6.239271   -7.144024
   5 O     8.0000    0    15.999  -10.972102   -4.126400  -11.595176
   6 N     7.0000    0    14.007   -3.501682   -7.371254  -10.496892
   7 N     7.0000    0    14.007   -4.701730    3.646886  -15.257925
   8 N     7.0000    0    14.007   -9.235365   -0.320468  -14.917570
   9 N     7.0000    0    14.007   -8.066903   -1.844270  -19.826898
  10 N     7.0000    0    14.007   -9.975627   -7.045136  -14.569256
  11 N     7.0000    0    14.007   -8.681483   -6.026761  -18.707752
  12 N     7.0000    0    14.007   -9.046107  -10.165062  -17.482479
  13 C     6.0000    0    12.011   -3.669094  -10.127396  -10.328427
  14 C     6.0000    0    12.011   -4.587149  -10.946655   -7.700048
  15 C     6.0000    0    12.011   -7.436333  -10.764926   -7.152653
  16 C     6.0000    0    12.011   -2.177874   -6.229922  -12.339733
  17 C     6.0000    0    12.011   -2.512500   -3.486610  -12.647371
  18 C     6.0000    0    12.011   -5.270757  -11.002031  -12.609560
  19 C     6.0000    0    12.011   -3.815621    1.385448  -14.221539
  20 C     6.0000    0    12.011   -7.469251    3.810631  -15.580981
  21 C     6.0000    0    12.011   -4.306369   -2.076743  -11.304243
  22 C     6.0000    0    12.011   -1.219044   -2.318952  -14.643235
  23 C     6.0000    0    12.011   -4.940573    0.332640  -12.073978
  24 C     6.0000    0    12.011   -1.834559    0.095765  -15.406152
  25 C     6.0000    0    12.011   -8.466013   -8.153561   -7.723543
  26 C     6.0000    0    12.011   -8.349326    1.297727  -16.603792
  27 C     6.0000    0    12.011   -9.473838   -2.740392  -15.626961
  28 C     6.0000    0    12.011   -7.856911    0.521534  -19.095882
  29 C     6.0000    0    12.011   -8.766049   -3.546794  -18.064799
  30 C     6.0000    0    12.011  -10.233397   -4.590928  -13.742425
  31 C     6.0000    0    12.011   -9.189963   -7.678147  -16.957719
  32 H     1.0000    0     1.008   -1.750332  -10.875803  -10.610781
  33 H     1.0000    0     1.008   -4.012666  -12.912061   -7.421153
  34 H     1.0000    0     1.008   -3.574578   -9.793789   -6.313260
  35 H     1.0000    0     1.008   -7.715621  -11.117234   -5.135061
  36 H     1.0000    0     1.008   -8.504056  -12.177148   -8.203997
  37 H     1.0000    0     1.008   -4.630402   -6.374487   -9.318133
  38 H     1.0000    0     1.008   -7.848938    5.377405  -16.869444
  39 H     1.0000    0     1.008   -8.360207    4.187318  -13.758034
  40 H     1.0000    0     1.008   -5.303874   -2.878430   -9.705390
  41 H     1.0000    0     1.008    0.207467   -3.386728  -15.655180
  42 H     1.0000    0     1.008   -3.823044    4.012203  -16.926975
  43 H     1.0000    0     1.008   -6.411165    1.351509  -11.081982
  44 H     1.0000    0     1.008   -0.884042    0.945059  -17.011273
  45 H     1.0000    0     1.008   -7.241778    1.882488  -20.505106
  46 H     1.0000    0     1.008   -2.530359   -9.610066  -14.611824
  47 H     1.0000    0     1.008  -10.297267   -8.451322  -13.305724
  48 H     1.0000    0     1.008  -10.996875   -6.409985   -9.619700
  49 H     1.0000    0     1.008   -8.800235  -11.354635  -16.007636
  50 H     1.0000    0     1.008   -8.047706  -10.574711  -19.050245

--------------------------------
INTERNAL COORDINATES (ANGSTROEM)
--------------------------------
 O      0   0   0     0.000000000000     0.00000000     0.00000000
 O      1   0   0     2.479470668442     0.00000000     0.00000000
 O      1   2   0     2.208180115621   127.32752728     0.00000000
 O      3   1   2     3.155003566295   126.80299597    33.75319948
 O      4   3   1     2.226990267055    96.42541203   313.99259224
 O      4   3   1     2.564978727556   103.19458145    40.02625181
 N      2   1   3     2.250162978294    75.63226850     0.30517941
 N      6   4   3     5.629143813507   138.99648499   292.70497325
 N      6   4   3     2.826999191073   155.52834591   320.92280151
 N      9   6   4     2.789560698001   116.44282198    65.29556206
 N      6   4   3     2.267271537659    78.03601895    19.60210124
 N     10   9   6     2.314109930788    90.39997411   353.35055833
 N     12  10   9     2.292001651430   176.41935784   281.91673609
 C      7   2   1     1.463892676424    93.22441600    43.08275049
 C     14   7   2     1.535743524201   110.82717088   160.48888561
 C     15  14   7     1.538305728535   117.57714588    79.13927383
 C      2   1   3     1.245787243658    96.88602554   337.63976957
 C     17   2   1     1.471491145793   121.71132532   232.39148288
 C      3   1   2     1.210189550193    29.99083926   330.83960821
 C      8   6   4     1.397407190950    55.72781555    12.78663598
 C      8   6   4     1.476996973703    59.88417390   186.80680015
 C     18  17   2     1.401039410920   123.41914606   167.68975626
 C     18  17   2     1.402062954310   117.34645408   357.17924446
 C     22  18  17     1.379908322912   120.46834207   195.21311802
 C     23  18  17     1.379088783755   120.90141983   165.83703251
 C      5   4   3     1.213304443600    29.26515397   307.28106955
 C      9   6   4     1.322621432321   174.91550515    49.02772488
 C      9   6   4     1.340410865162    57.51691170    64.71784610
 C     10   9   6     1.315035790306    57.96644466   179.12106109
 C     10   9   6     1.348351800772    59.22165681   356.04904606
 C      6   4   3     1.226521720823   108.33188199    11.31075389
 C     12  10   9     1.301414862901   148.58246041   356.68930716
 H     14   7   2     1.100062908644   107.13097883    42.57850459
 H     15  14   7     1.093571732941   107.62379974   201.05946913
 H     15  14   7     1.094461070013   107.15990967   316.61740035
 H     16  15  14     1.093849560030   107.79231038   189.09356572
 H     16  15  14     1.089607819306   111.66732146    70.44621691
 H      7   2   1     1.011964596645   149.76621961   233.37334790
 H     21   8   6     1.092091481711   107.41103807   190.54987880
 H     21   8   6     1.092060178340   109.66652181    71.65314740
 H     22  18  17     1.083721935129   121.17283679    11.80642696
 H     23  18  17     1.084375516463   118.82945024   349.33604670
 H      8   6   4     1.016691645340   135.04429677    98.05276096
 H     24  22  18     1.082524984200   119.46473531   176.32332791
 H     25  23  18     1.084645357250   120.24156737   183.01217470
 H     29  10   9     1.086618020884   117.02668465   181.27722379
 H      1   2   3     1.039320571257    11.56146747   208.01860269
 H     11   6   4     1.014768934625    90.18085948    11.49130897
 H      4   3   1     1.018077701127   117.42522533    39.64349023
 H     13  12  32     1.011088341703   143.35838146   325.39989919
 H     13  12  32     1.007176738348    85.89769455   196.11521477

---------------------------
INTERNAL COORDINATES (A.U.)
---------------------------
 O      0   0   0     0.000000000000     0.00000000     0.00000000
 O      1   0   0     4.685520520447     0.00000000     0.00000000
 O      1   2   0     4.172855672895   127.32752728     0.00000000
 O      3   1   2     5.962092691842   126.80299597    33.75319948
 O      4   3   1     4.208401707642    96.42541203   313.99259224
 O      4   3   1     4.847107334416   103.19458145    40.02625181
 N      2   1   3     4.252191785663    75.63226850     0.30517941
 N      6   4   3    10.637540175985   138.99648499   292.70497325
 N      6   4   3     5.342254251945   155.52834591   320.92280151
 N      9   6   4     5.271505753172   116.44282198    65.29556206
 N      6   4   3     4.284522277410    78.03601895    19.60210124
 N     10   9   6     4.373034012976    90.39997411   353.35055833
 N     12  10   9     4.331255419698   176.41935784   281.91673609
 C      7   2   1     2.766356247895    93.22441600    43.08275049
 C     14   7   2     2.902134672683   110.82717088   160.48888561
 C     15  14   7     2.906976537173   117.57714588    79.13927383
 C      2   1   3     2.354196711647    96.88602554   337.63976957
 C     17   2   1     2.780715274039   121.71132532   232.39148288
 C      3   1   2     2.286926819999    29.99083926   330.83960821
 C      8   6   4     2.640716888467    55.72781555    12.78663598
 C      8   6   4     2.791119780929    59.88417390   186.80680015
 C     18  17   2     2.647580789470   123.41914606   167.68975626
 C     18  17   2     2.649515006163   117.34645408   357.17924446
 C     22  18  17     2.607648820222   120.46834207   195.21311802
 C     23  18  17     2.606100115660   120.90141983   165.83703251
 C      5   4   3     2.292813115474    29.26515397   307.28106955
 C      9   6   4     2.499392285941   174.91550515    49.02772488
 C      9   6   4     2.533009442088    57.51691170    64.71784610
 C     10   9   6     2.485057499983    57.96644466   179.12106109
 C     10   9   6     2.548015635638    59.22165681   356.04904606
 C      6   4   3     2.317790149662   108.33188199    11.31075389
 C     12  10   9     2.459317677498   148.58246041   356.68930716
 H     14   7   2     2.078817627422   107.13097883    42.57850459
 H     15  14   7     2.066551083056   107.62379974   201.05946913
 H     15  14   7     2.068231686564   107.15990967   316.61740035
 H     16  15  14     2.067076100168   107.79231038   189.09356572
 H     16  15  14     2.059060371867   111.66732146    70.44621691
 H      7   2   1     1.912335944882   149.76621961   233.37334790
 H     21   8   6     2.063753813623   107.41103807   190.54987880
 H     21   8   6     2.063694658823   109.66652181    71.65314740
 H     22  18  17     2.047937662716   121.17283679    11.80642696
 H     23  18  17     2.049172752444   118.82945024   349.33604670
 H      8   6   4     1.921268772338   135.04429677    98.05276096
 H     24  22  18     2.045675753266   119.46473531   176.32332791
 H     25  23  18     2.049682677631   120.24156737   183.01217470
 H     29  10   9     2.053410471655   117.02668465   181.27722379
 H      1   2   3     1.964031245027    11.56146747   208.01860269
 H     11   6   4     1.917635375652    90.18085948    11.49130897
 H      4   3   1     1.923888038183   117.42522533    39.64349023
 H     13  12  32     1.910680063019   143.35838146   325.39989919
 H     13  12  32     1.903288203933    85.89769455   196.11521477

---------------------
BASIS SET INFORMATION
---------------------
There are 4 groups of distinct atoms

 Group   1 Type O   : 11s6p2d contracted to 5s3p2d pattern {62111/411/11}
 Group   2 Type N   : 11s6p1d contracted to 5s3p1d pattern {62111/411/1}
 Group   3 Type C   : 11s6p1d contracted to 5s3p1d pattern {62111/411/1}
 Group   4 Type H   : 5s contracted to 3s pattern {311}

Atom   0O    basis set group =>   1
Atom   1O    basis set group =>   1
Atom   2O    basis set group =>   1
Atom   3O    basis set group =>   1
Atom   4O    basis set group =>   1
Atom   5O    basis set group =>   1
Atom   6N    basis set group =>   2
Atom   7N    basis set group =>   2
Atom   8N    basis set group =>   2
Atom   9N    basis set group =>   2
Atom  10N    basis set group =>   2
Atom  11N    basis set group =>   2
Atom  12N    basis set group =>   2
Atom  13C    basis set group =>   3
Atom  14C    basis set group =>   3
Atom  15C    basis set group =>   3
Atom  16C    basis set group =>   3
Atom  17C    basis set group =>   3
Atom  18C    basis set group =>   3
Atom  19C    basis set group =>   3
Atom  20C    basis set group =>   3
Atom  21C    basis set group =>   3
Atom  22C    basis set group =>   3
Atom  23C    basis set group =>   3
Atom  24C    basis set group =>   3
Atom  25C    basis set group =>   3
Atom  26C    basis set group =>   3
Atom  27C    basis set group =>   3
Atom  28C    basis set group =>   3
Atom  29C    basis set group =>   3
Atom  30C    basis set group =>   3
Atom  31C    basis set group =>   3
Atom  32H    basis set group =>   4
Atom  33H    basis set group =>   4
Atom  34H    basis set group =>   4
Atom  35H    basis set group =>   4
Atom  36H    basis set group =>   4
Atom  37H    basis set group =>   4
Atom  38H    basis set group =>   4
Atom  39H    basis set group =>   4
Atom  40H    basis set group =>   4
Atom  41H    basis set group =>   4
Atom  42H    basis set group =>   4
Atom  43H    basis set group =>   4
Atom  44H    basis set group =>   4
Atom  45H    basis set group =>   4
Atom  46H    basis set group =>   4
Atom  47H    basis set group =>   4
Atom  48H    basis set group =>   4
Atom  49H    basis set group =>   4
Atom  50H    basis set group =>   4
---------------------------------
AUXILIARY/J BASIS SET INFORMATION
---------------------------------
There are 4 groups of distinct atoms

 Group   1 Type O   : 8s3p3d contracted to 6s3p3d pattern {311111/111/111}
 Group   2 Type N   : 8s3p3d contracted to 6s3p3d pattern {311111/111/111}
 Group   3 Type C   : 8s3p3d contracted to 6s3p3d pattern {311111/111/111}
 Group   4 Type H   : 5s2p contracted to 3s1p pattern {311/2}

Atom   0O    basis set group =>   1
Atom   1O    basis set group =>   1
Atom   2O    basis set group =>   1
Atom   3O    basis set group =>   1
Atom   4O    basis set group =>   1
Atom   5O    basis set group =>   1
Atom   6N    basis set group =>   2
Atom   7N    basis set group =>   2
Atom   8N    basis set group =>   2
Atom   9N    basis set group =>   2
Atom  10N    basis set group =>   2
Atom  11N    basis set group =>   2
Atom  12N    basis set group =>   2
Atom  13C    basis set group =>   3
Atom  14C    basis set group =>   3
Atom  15C    basis set group =>   3
Atom  16C    basis set group =>   3
Atom  17C    basis set group =>   3
Atom  18C    basis set group =>   3
Atom  19C    basis set group =>   3
Atom  20C    basis set group =>   3
Atom  21C    basis set group =>   3
Atom  22C    basis set group =>   3
Atom  23C    basis set group =>   3
Atom  24C    basis set group =>   3
Atom  25C    basis set group =>   3
Atom  26C    basis set group =>   3
Atom  27C    basis set group =>   3
Atom  28C    basis set group =>   3
Atom  29C    basis set group =>   3
Atom  30C    basis set group =>   3
Atom  31C    basis set group =>   3
Atom  32H    basis set group =>   4
Atom  33H    basis set group =>   4
Atom  34H    basis set group =>   4
Atom  35H    basis set group =>   4
Atom  36H    basis set group =>   4
Atom  37H    basis set group =>   4
Atom  38H    basis set group =>   4
Atom  39H    basis set group =>   4
Atom  40H    basis set group =>   4
Atom  41H    basis set group =>   4
Atom  42H    basis set group =>   4
Atom  43H    basis set group =>   4
Atom  44H    basis set group =>   4
Atom  45H    basis set group =>   4
Atom  46H    basis set group =>   4
Atom  47H    basis set group =>   4
Atom  48H    basis set group =>   4
Atom  49H    basis set group =>   4
Atom  50H    basis set group =>   4


           ************************************************************
           *        Program running with 16 parallel MPI-processes    *
           *              working on a common directory               *
           ************************************************************
------------------------------------------------------------------------------
                             ORCA STARTUP CALCULATIONS
                           -- RI-GTO INTEGRALS CHOSEN --
------------------------------------------------------------------------------
------------------------------------------------------------------------------
                   ___                                                        
                  /   \      - P O W E R E D   B Y -                         
                 /     \                                                     
                 |  |  |   _    _      __       _____    __    __             
                 |  |  |  | |  | |    /  \     |  _  \  |  |  /  |          
                  \  \/   | |  | |   /    \    | | | |  |  | /  /          
                 / \  \   | |__| |  /  /\  \   | |_| |  |  |/  /          
                |  |  |   |  __  | /  /__\  \  |    /   |      \           
                |  |  |   | |  | | |   __   |  |    \   |  |\   \          
                \     /   | |  | | |  |  |  |  | |\  \  |  | \   \       
                 \___/    |_|  |_| |__|  |__|  |_| \__\ |__|  \__/        
                                                                              
                      - O R C A' S   B I G   F R I E N D -                    
                                      &                                       
                       - I N T E G R A L  F E E D E R -                       
                                                                              
 v1 FN, 2020, v2 2021, v3 2022-2024                                           
------------------------------------------------------------------------------


----------------------
SHARK INTEGRAL PACKAGE
----------------------

Number of atoms                             ...     51
Number of basis functions                   ...    695
Number of shells                            ...    351
Maximum angular momentum                    ...      2
Integral batch strategy                     ... SHARK/LIBINT Hybrid
RI-J (if used) integral strategy            ... SPLIT-RIJ (Revised 2003 algorithm where possible)
Printlevel                                  ...      1
Contraction scheme used                     ... SEGMENTED contraction
Prescreening option                         ... SCHWARTZ
   Thresh                                   ... 2.500e-11
   Tcut                                     ... 2.500e-12
   Tpresel                                  ... 2.500e-12 
Coulomb Range Separation                    ... NOT USED
Exchange Range Separation                   ... NOT USED
Multipole approximations                    ... NOT USED
Finite Nucleus Model                        ... NOT USED
CABS basis                                  ... NOT available
Auxiliary Coulomb fitting basis             ... AVAILABLE
   # of basis functions in Aux-J            ...   1074
   # of shells in Aux-J                     ...    460
   Maximum angular momentum in Aux-J        ...      2
Auxiliary J/K fitting basis                 ... NOT available
Auxiliary Correlation fitting basis         ... NOT available
Auxiliary 'external' fitting basis          ... NOT available

Checking pre-screening integrals            ... done (  0.0 sec) Dimension = 351
Check shell pair data                       ... done (  0.0 sec)
Shell pair information
Shell pair cut-off parameter TPreSel        ...   2.5e-12
Total number of shell pairs                 ...     61776
Shell pairs after pre-screening             ...     44601
Total number of primitive shell pairs       ...    230264
Primitive shell pairs kept                  ...    100447
          la=0 lb=0:  15589 shell pairs
          la=1 lb=0:  16073 shell pairs
          la=1 lb=1:   4037 shell pairs
          la=2 lb=0:   5482 shell pairs
          la=2 lb=1:   2902 shell pairs
          la=2 lb=2:    518 shell pairs

Calculating one electron integrals          ... done (  0.0 sec)
Calculating RI/J V-Matrix + Cholesky decomp.... done (  0.0 sec)
Calculating Nuclear repulsion               ... done (  0.0 sec) ENN=   3584.833386104752 Eh

Diagonalization of the overlap matrix:
Smallest eigenvalue                        ... 7.410e-06
Time for diagonalization                   ...    0.052 sec
Threshold for overlap eigenvalues          ... 1.000e-07
Number of eigenvalues below threshold      ... 0
Time for construction of square roots      ...    0.031 sec
Total time needed                          ...    0.088 sec

-------------------
DFT GRID GENERATION
-------------------

General Integration Accuracy     IntAcc      ... 4.959
Radial Grid Type                 RadialGrid  ... OptM3 with GC (2021)
Angular Grid (max. ang.)         AngularGrid ... 6 (Lebedev-590)
Angular grid pruning method      GridPruning ... 4 (adaptive)
Weight generation scheme         WeightScheme... mBecke (2022)
Basis function cutoff            BFCut       ... 1.0000e-11
Integration weight cutoff        WCut        ... 1.0000e-14
Partially contracted basis set               ... off
Rotationally invariant grid construction     ... off
Angular grids for H and He will be reduced by one unit
Diffuse basis detected: some atoms will have their outermost
                        angular grid increased by 1.

Total number of grid points                  ...   613066
Total number of batches                      ...     9603
Average number of points per batch           ...       63
Average number of grid points per atom       ...    12021
Initializing property integral containers    ... done (  0.0 sec)

SHARK setup successfully completed in   5.3 seconds

Maximum memory used throughout the entire STARTUP-calculation: 158.1 MB


           ************************************************************
           *        Program running with 16 parallel MPI-processes    *
           *              working on a common directory               *
           ************************************************************
-------------------------------------------------------------------------------
                                 ORCA GUESS
                   Start orbitals & Density for SCF / CASSCF
-------------------------------------------------------------------------------

------------
SCF SETTINGS
------------
Hamiltonian:
 Density Functional     Method          .... DFT(GTOs)
 Exchange Functional    Exchange        .... B973C
 Correlation Functional Correlation     .... B973C
 Gradients option       PostSCFGGA      .... off
 RI-approximation to the Coulomb term is turned on
   Number of AuxJ basis functions       .... 1074


General Settings:
 Integral files         IntName         .... m1_00_Vitamin_B9-GFN1_00000-B97-3C-TZ
 Hartree-Fock type      HFTyp           .... RHF
 Total Charge           Charge          ....    0
 Multiplicity           Mult            ....    1
 Number of Electrons    NEL             ....  230
 Basis Dimension        Dim             ....  695
 Nuclear Repulsion      ENuc            ....   3584.8333861048 Eh

Convergence Acceleration:
 AO-DIIS                CNVDIIS         .... on
   Start iteration      DIISMaxIt       ....    12
   Startup error        DIISStart       ....  0.200000
   # of expansion vecs  DIISMaxEq       ....     5
   Bias factor          DIISBfac        ....   1.050
   Max. coefficient     DIISMaxC        ....  10.000
 MO-DIIS                CNVKDIIS        .... off
 Trust-Rad. Augm. Hess. CNVTRAH         .... off
 SOSCF                  CNVSOSCF        .... on
   Start iteration      SOSCFMaxIt      ....   150
   Startup grad/error   SOSCFStart      ....  0.003300
   Hessian update       SOSCFHessUp     .... L-BFGS
 Level Shifting         CNVShift        .... on
   Level shift para.    LevelShift      ....    0.2500
   Turn off err/grad.   ShiftErr        ....    0.0010
 Zerner damping         CNVZerner       .... off
 Static damping         CNVDamp         .... on
   Fraction old density DampFac         ....    0.7000
   Max. Damping (<1)    DampMax         ....    0.9800
   Min. Damping (>=0)   DampMin         ....    0.0000
   Turn off err/grad.   DampErr         ....    0.1000

SCF Procedure:
 Maximum # iterations   MaxIter         ....   800
 SCF integral mode      SCFMode         .... Direct
   Integral package                     .... SHARK and LIBINT hybrid scheme
 Reset frequency        DirectResetFreq ....    20
 Integral Threshold     Thresh          ....  2.500e-11 Eh
 Primitive CutOff       TCut            ....  2.500e-12 Eh

Convergence Tolerance:
 Convergence Check Mode ConvCheckMode   .... Total+1el-Energy
 Convergence forced     ConvForced      .... 0
 Energy Change          TolE            ....  1.000e-08 Eh
 1-El. energy change                    ....  1.000e-05 Eh
 Orbital Gradient       TolG            ....  1.000e-05
 Orbital Rotation angle TolX            ....  1.000e-05
 DIIS Error             TolErr          ....  5.000e-07

--------------------------------
INITIAL GUESS: MINIMAL BASIS EHT
--------------------------------
The minimal basis has 179 functions
EHT matrix was diagonalized
Basis set overlap was calculated now projecting the orbitals
Using GuessMode=FMatrix for the initial guess
C*T matrix was formed
Effective Fockian was calculated
Effective Fockian was diagonalized
Initial density was built
                      ------------------
                      INITIAL GUESS DONE
                      ------------------
             **** ENERGY FILE WAS UPDATED (m1_00_Vitamin_B9-GFN1_00000-B97-3C-TZ.en.tmp) ****
Finished Guess after   0.5 sec
Maximum memory used throughout the entire GUESS-calculation: 77.3 MB


           ************************************************************
           *        Program running with 16 parallel MPI-processes    *
           *              working on a common directory               *
           ************************************************************

-------------------------------------------------------------------------------------------
                                      ORCA LEAN-SCF
                              memory conserving SCF solver
-------------------------------------------------------------------------------------------

----------------------------------------D-I-I-S--------------------------------------------
Iteration    Energy (Eh)           Delta-E    RMSDP     MaxDP     DIISErr   Damp  Time(sec)
-------------------------------------------------------------------------------------------
               ***  Starting incremental Fock matrix formation  ***
    1    -1563.3847711389275901     0.00e+00  7.48e-03  8.19e-01  4.67e-01  0.700   1.9
Warning: op=0 Small HOMO/LUMO gap (   0.036) - skipping pre-diagonalization
         Will do a full diagonalization
    2    -1565.5543493222726283    -2.17e+00  4.56e-03  4.15e-01  3.30e-01  0.700   2.1
    3    -1566.6208840123076698    -1.07e+00  2.30e-03  7.99e-02  2.40e-01  0.700   1.9
                               ***Turning on AO-DIIS***
    4    -1567.3665289166342518    -7.46e-01  2.04e-03  1.98e-01  1.70e-01  0.700   1.9
    5    -1567.8930288182095865    -5.26e-01  1.37e-03  1.29e-01  1.16e-01  0.700   1.9
    6    -1568.2642584834725312    -3.71e-01  8.58e-04  6.15e-02  7.97e-02  0.700   1.9
    7    -1568.5267564502250934    -2.62e-01  1.96e-03  9.27e-02  5.56e-02  0.000   1.8
    8    -1569.1341762801980622    -6.07e-01  5.23e-04  5.26e-02  2.15e-02  0.000   1.9
    9    -1569.1390485513470594    -4.87e-03  1.46e-04  8.73e-03  1.22e-02  0.000   1.8
   10    -1569.1392792074143472    -2.31e-04  7.37e-05  6.63e-03  6.92e-03  0.000   1.8
                              *** Initializing SOSCF ***
---------------------------------------S-O-S-C-F--------------------------------------
Iteration    Energy (Eh)           Delta-E    RMSDP     MaxDP     MaxGrad    Time(sec)
--------------------------------------------------------------------------------------
   11    -1569.1395905033373310    -3.11e-04  3.57e-05  3.46e-03  1.35e-03     1.9
               *** Restarting incremental Fock matrix formation ***
   12    -1569.1396083983522658    -1.79e-05  3.52e-05  2.96e-03  1.35e-04     2.0
   13    -1569.1396014702781940     6.93e-06  1.52e-05  1.23e-03  2.87e-04     1.7
   14    -1569.1396104609270878    -8.99e-06  2.35e-05  2.73e-03  5.75e-05     1.7
   15    -1569.1396093094285789     1.15e-06  8.41e-06  7.56e-04  1.37e-04     1.7
   16    -1569.1396106862698616    -1.38e-06  6.84e-06  5.27e-04  1.46e-05     1.7
   17    -1569.1396106297465849     5.65e-08  3.34e-06  3.46e-04  3.44e-05     1.6
   18    -1569.1396107084924552    -7.87e-08  1.15e-05  1.40e-03  3.08e-06     1.6
   19    -1569.1396107287168888    -2.02e-08  3.23e-06  3.57e-04  7.10e-06     1.6
   20    -1569.1396107362875227    -7.57e-09  3.93e-06  5.32e-04  7.42e-07     1.6
                 **** Energy Check signals convergence ****

               *****************************************************
               *                     SUCCESS                       *
               *           SCF CONVERGED AFTER  20 CYCLES          *
               *****************************************************

             **** ENERGY FILE WAS UPDATED (m1_00_Vitamin_B9-GFN1_00000-B97-3C-TZ.en.tmp) ****

----------------
TOTAL SCF ENERGY
----------------

Total Energy       :      -1569.13961073628752 Eh          -42698.45956 eV

Components:
Nuclear Repulsion  :       3584.83338610475175 Eh           97548.27569 eV
Electronic Energy  :      -5153.97299684103928 Eh         -140246.73525 eV
One Electron Energy:      -9275.33531834385394 Eh         -252394.70551 eV
Two Electron Energy:       4121.36232150281467 Eh          112147.97026 eV

Virial components:
Potential Energy   :      -3132.89965215482016 Eh          -85250.53359 eV
Kinetic Energy     :       1563.76004141853264 Eh           42552.07403 eV
Virial Ratio       :          2.00344015013510

DFT components:
N(Alpha)           :      115.000123709515 electrons
N(Beta)            :      115.000123709515 electrons
N(Total)           :      230.000247419029 electrons
E(XC)              :     -209.182212986041 Eh       

---------------
SCF CONVERGENCE
---------------

  Last Energy change         ...    7.5706e-09  Tolerance :   1.0000e-08
  Last MAX-Density change    ...    5.3231e-04  Tolerance :   1.0000e-07
  Last RMS-Density change    ...    3.9271e-06  Tolerance :   5.0000e-09
  Last DIIS Error            ...    1.3462e-03  Tolerance :   5.0000e-07
  Last Orbital Gradient      ...    7.4228e-07  Tolerance :   1.0000e-05
  Last Orbital Rotation      ...    3.1570e-06  Tolerance :   1.0000e-05


----------------
ORBITAL ENERGIES
----------------

  NO   OCC          E(Eh)            E(eV) 
   0   2.0000     -18.784872      -511.1624 
   1   2.0000     -18.782714      -511.1036 
   2   2.0000     -18.748692      -510.1778 
   3   2.0000     -18.747013      -510.1321 
   4   2.0000     -18.738714      -509.9063 
   5   2.0000     -18.737149      -509.8638 
   6   2.0000     -14.062408      -382.6576 
   7   2.0000     -14.032874      -381.8539 
   8   2.0000     -14.023306      -381.5936 
   9   2.0000     -14.017294      -381.4300 
  10   2.0000     -14.010090      -381.2339 
  11   2.0000     -14.002886      -381.0379 
  12   2.0000     -13.981801      -380.4641 
  13   2.0000     -10.031872      -272.9811 
  14   2.0000     -10.023388      -272.7502 
  15   2.0000     -10.020743      -272.6783 
  16   2.0000     -10.020507      -272.6719 
  17   2.0000     -10.008448      -272.3437 
  18   2.0000      -9.975957      -271.4596 
  19   2.0000      -9.966850      -271.2118 
  20   2.0000      -9.951079      -270.7826 
  21   2.0000      -9.947564      -270.6870 
  22   2.0000      -9.946880      -270.6684 
  23   2.0000      -9.946645      -270.6620 
  24   2.0000      -9.945732      -270.6371 
  25   2.0000      -9.922567      -270.0068 
  26   2.0000      -9.911666      -269.7101 
  27   2.0000      -9.910647      -269.6824 
  28   2.0000      -9.909930      -269.6629 
  29   2.0000      -9.908359      -269.6202 
  30   2.0000      -9.905957      -269.5548 
  31   2.0000      -9.902203      -269.4527 
  32   2.0000      -1.035458       -28.1762 
  33   2.0000      -1.031217       -28.0608 
  34   2.0000      -1.000166       -27.2159 
  35   2.0000      -0.986561       -26.8457 
  36   2.0000      -0.951823       -25.9004 
  37   2.0000      -0.949647       -25.8412 
  38   2.0000      -0.942738       -25.6532 
  39   2.0000      -0.922692       -25.1077 
  40   2.0000      -0.886969       -24.1357 
  41   2.0000      -0.877656       -23.8822 
  42   2.0000      -0.859049       -23.3759 
  43   2.0000      -0.852585       -23.2000 
  44   2.0000      -0.828992       -22.5580 
  45   2.0000      -0.795253       -21.6399 
  46   2.0000      -0.751495       -20.4492 
  47   2.0000      -0.734891       -19.9974 
  48   2.0000      -0.707527       -19.2528 
  49   2.0000      -0.697921       -18.9914 
  50   2.0000      -0.680843       -18.5267 
  51   2.0000      -0.660275       -17.9670 
  52   2.0000      -0.652320       -17.7505 
  53   2.0000      -0.620569       -16.8865 
  54   2.0000      -0.610691       -16.6177 
  55   2.0000      -0.595117       -16.1940 
  56   2.0000      -0.591453       -16.0943 
  57   2.0000      -0.572206       -15.5705 
  58   2.0000      -0.562737       -15.3128 
  59   2.0000      -0.557717       -15.1762 
  60   2.0000      -0.549259       -14.9461 
  61   2.0000      -0.542795       -14.7702 
  62   2.0000      -0.533840       -14.5265 
  63   2.0000      -0.514036       -13.9876 
  64   2.0000      -0.508583       -13.8392 
  65   2.0000      -0.495968       -13.4960 
  66   2.0000      -0.489674       -13.3247 
  67   2.0000      -0.478777       -13.0282 
  68   2.0000      -0.468429       -12.7466 
  69   2.0000      -0.464315       -12.6347 
  70   2.0000      -0.462142       -12.5755 
  71   2.0000      -0.453398       -12.3376 
  72   2.0000      -0.447068       -12.1653 
  73   2.0000      -0.443445       -12.0668 
  74   2.0000      -0.439611       -11.9624 
  75   2.0000      -0.433631       -11.7997 
  76   2.0000      -0.426681       -11.6106 
  77   2.0000      -0.425046       -11.5661 
  78   2.0000      -0.415912       -11.3175 
  79   2.0000      -0.411666       -11.2020 
  80   2.0000      -0.406958       -11.0739 
  81   2.0000      -0.403027       -10.9669 
  82   2.0000      -0.398638       -10.8475 
  83   2.0000      -0.397011       -10.8032 
  84   2.0000      -0.390144       -10.6164 
  85   2.0000      -0.387588       -10.5468 
  86   2.0000      -0.384380       -10.4595 
  87   2.0000      -0.378085       -10.2882 
  88   2.0000      -0.372095       -10.1252 
  89   2.0000      -0.369175       -10.0458 
  90   2.0000      -0.360324        -9.8049 
  91   2.0000      -0.349923        -9.5219 
  92   2.0000      -0.348729        -9.4894 
  93   2.0000      -0.343290        -9.3414 
  94   2.0000      -0.338736        -9.2175 
  95   2.0000      -0.328935        -8.9508 
  96   2.0000      -0.319956        -8.7065 
  97   2.0000      -0.315280        -8.5792 
  98   2.0000      -0.308173        -8.3858 
  99   2.0000      -0.293060        -7.9746 
 100   2.0000      -0.290699        -7.9103 
 101   2.0000      -0.288236        -7.8433 
 102   2.0000      -0.274883        -7.4799 
 103   2.0000      -0.273557        -7.4439 
 104   2.0000      -0.268997        -7.3198 
 105   2.0000      -0.264590        -7.1998 
 106   2.0000      -0.261873        -7.1259 
 107   2.0000      -0.249199        -6.7810 
 108   2.0000      -0.248482        -6.7615 
 109   2.0000      -0.242823        -6.6075 
 110   2.0000      -0.237683        -6.4677 
 111   2.0000      -0.234474        -6.3804 
 112   2.0000      -0.217257        -5.9119 
 113   2.0000      -0.209451        -5.6995 
 114   2.0000      -0.195344        -5.3156 
 115   0.0000      -0.108974        -2.9653 
 116   0.0000      -0.079382        -2.1601 
 117   0.0000      -0.071616        -1.9488 
 118   0.0000      -0.047701        -1.2980 
 119   0.0000      -0.043864        -1.1936 
 120   0.0000      -0.041219        -1.1216 
 121   0.0000      -0.025791        -0.7018 
 122   0.0000       0.003898         0.1061 
 123   0.0000       0.005006         0.1362 
 124   0.0000       0.011872         0.3230 
 125   0.0000       0.016467         0.4481 
*Only the first 10 virtual orbitals were printed.

                    ********************************
                    * MULLIKEN POPULATION ANALYSIS *
                    ********************************

-----------------------
MULLIKEN ATOMIC CHARGES
-----------------------
   0 O :   -0.471731
   1 O :   -0.554731
   2 O :   -0.509596
   3 O :   -0.481610
   4 O :   -0.486374
   5 O :   -0.496597
   6 N :   -0.426270
   7 N :   -0.317188
   8 N :   -0.033242
   9 N :   -0.042365
  10 N :   -0.414539
  11 N :   -0.153011
  12 N :   -0.613958
  13 C :   -0.079630
  14 C :   -0.330965
  15 C :   -0.178613
  16 C :    0.278031
  17 C :    0.036282
  18 C :    0.428356
  19 C :    0.048698
  20 C :   -0.540912
  21 C :   -0.081339
  22 C :   -0.183157
  23 C :   -0.163994
  24 C :   -0.132913
  25 C :    0.348842
  26 C :    0.187406
  27 C :    0.089732
  28 C :   -0.155999
  29 C :   -0.085535
  30 C :    0.285538
  31 C :    0.368572
  32 H :    0.216414
  33 H :    0.195800
  34 H :    0.189072
  35 H :    0.193777
  36 H :    0.173642
  37 H :    0.423266
  38 H :    0.210526
  39 H :    0.224376
  40 H :    0.153433
  41 H :    0.197219
  42 H :    0.309804
  43 H :    0.182855
  44 H :    0.168060
  45 H :    0.162840
  46 H :    0.386912
  47 H :    0.393634
  48 H :    0.377651
  49 H :    0.354274
  50 H :    0.349257
Sum of atomic charges:   -0.0000000

--------------------------------
MULLIKEN REDUCED ORBITAL CHARGES
--------------------------------
  0 O s       :     3.771377  s :     3.771377
      pz      :     1.509623  p :     4.670562
      px      :     1.516942
      py      :     1.643997
      dz2     :     0.008432  d :     0.029793
      dxz     :     0.010999
      dyz     :     0.008273
      dx2y2   :     0.004862
      dxy     :    -0.002774

  1 O s       :     3.848297  s :     3.848297
      pz      :     1.507648  p :     4.662198
      px      :     1.531684
      py      :     1.622866
      dz2     :     0.007121  d :     0.044237
      dxz     :     0.010574
      dyz     :     0.009187
      dx2y2   :     0.008630
      dxy     :     0.008724

  2 O s       :     3.847500  s :     3.847500
      pz      :     1.813390  p :     4.608859
      px      :     1.337176
      py      :     1.458293
      dz2     :     0.020742  d :     0.053238
      dxz     :     0.005161
      dyz     :     0.006099
      dx2y2   :     0.012134
      dxy     :     0.009102

  3 O s       :     3.762261  s :     3.762261
      pz      :     1.614024  p :     4.693330
      px      :     1.462970
      py      :     1.616336
      dz2     :     0.004740  d :     0.026020
      dxz     :     0.006006
      dyz     :     0.001258
      dx2y2   :     0.004041
      dxy     :     0.009974

  4 O s       :     3.857597  s :     3.857597
      pz      :     1.530402  p :     4.592491
      px      :     1.599094
      py      :     1.462995
      dz2     :     0.003285  d :     0.036286
      dxz     :     0.008368
      dyz     :     0.012994
      dx2y2   :    -0.000457
      dxy     :     0.012096

  5 O s       :     3.862910  s :     3.862910
      pz      :     1.325711  p :     4.604727
      px      :     1.487548
      py      :     1.791468
      dz2     :     0.009329  d :     0.028960
      dxz     :     0.005420
      dyz     :     0.005401
      dx2y2   :     0.005332
      dxy     :     0.003478

  6 N s       :     3.367265  s :     3.367265
      pz      :     1.406708  p :     4.018967
      px      :     1.454209
      py      :     1.158050
      dz2     :     0.006008  d :     0.040038
      dxz     :     0.006849
      dyz     :     0.010774
      dx2y2   :     0.006833
      dxy     :     0.009574

  7 N s       :     3.408422  s :     3.408422
      pz      :     1.324337  p :     3.864808
      px      :     1.102984
      py      :     1.437486
      dz2     :     0.009891  d :     0.043958
      dxz     :     0.009860
      dyz     :     0.004591
      dx2y2   :     0.012128
      dxy     :     0.007489

  8 N s       :     3.491327  s :     3.491327
      pz      :     1.390123  p :     3.493774
      px      :     1.076665
      py      :     1.026986
      dz2     :     0.008650  d :     0.048141
      dxz     :     0.007771
      dyz     :     0.014802
      dx2y2   :     0.008661
      dxy     :     0.008257

  9 N s       :     3.500741  s :     3.500741
[...]
114:   1448.32   0.004312   21.79  0.000929  (-0.028925 -0.009553 -0.001101)
115:   1469.61   0.001318    6.66  0.000280  (-0.008626 -0.012496  0.007027)
116:   1484.86   0.005489   27.74  0.001154  ( 0.015325 -0.018205  0.024236)
117:   1488.03   0.018548   93.74  0.003890  ( 0.002741  0.061702  0.008673)
118:   1491.71   0.002414   12.20  0.000505  (-0.021809 -0.003406  0.004208)
119:   1496.46   0.037093  187.45  0.007735  (-0.042178  0.040942  0.065421)
120:   1504.15   0.004011   20.27  0.000832  (-0.014594  0.024878 -0.000548)
121:   1506.55   0.005466   27.62  0.001132  (-0.012977 -0.023194 -0.020634)
122:   1529.02   0.021501  108.66  0.004388  ( 0.008925  0.056335 -0.033689)
123:   1533.76   0.032232  162.89  0.006558  ( 0.010323  0.054409 -0.059086)
124:   1560.41   0.044430  224.53  0.008885  (-0.062500 -0.034172  0.061737)
125:   1576.19   0.029106  147.09  0.005763  (-0.007231 -0.074275  0.013908)
126:   1590.10   0.020775  104.99  0.004077  ( 0.010095 -0.062685 -0.006774)
127:   1621.50   0.018336   92.66  0.003529  (-0.031102  0.049567  0.010224)
128:   1636.51   0.056971  287.91  0.010864  ( 0.002591  0.103671 -0.010456)
129:   1643.94   0.032809  165.80  0.006228  ( 0.022944 -0.069054  0.030546)
130:   1691.41   0.089221  450.89  0.016461  ( 0.029749 -0.099526 -0.075304)
131:   1703.86   0.070573  356.65  0.012926  ( 0.030797  0.049775 -0.097466)
132:   1731.10   0.022997  116.22  0.004146  (-0.051651 -0.034541  0.016871)
133:   1751.66   0.078114  394.76  0.013916  (-0.102268 -0.057131 -0.013916)
134:   2839.19   0.149937  757.72  0.016480  ( 0.065981  0.109616  0.010526)
135:   3000.39   0.000580    2.93  0.000060  (-0.000339  0.007635 -0.001400)
136:   3003.56   0.002953   14.92  0.000307  (-0.014543  0.007470  0.006289)
137:   3023.80   0.011457   57.90  0.001182  ( 0.015039 -0.019578  0.023937)
138:   3042.19   0.022742  114.93  0.002333  ( 0.015416 -0.042596  0.016757)
139:   3044.40   0.187697  948.54  0.019240  (-0.024387  0.086731 -0.105464)
140:   3061.30   0.002293   11.59  0.000234  (-0.002291 -0.014178 -0.005238)
141:   3071.39   0.006439   32.54  0.000654  (-0.004627 -0.023079  0.010006)
142:   3092.99   0.001586    8.01  0.000160  (-0.004006 -0.002721  0.011684)
143:   3119.89   0.003477   17.57  0.000348  (-0.005354 -0.012112  0.013130)
144:   3132.56   0.000949    4.80  0.000095  ( 0.006130  0.007533 -0.000465)
145:   3154.96   0.000205    1.03  0.000020  ( 0.002250 -0.002689  0.002821)
146:   3168.99   0.000634    3.20  0.000062  ( 0.005504  0.003234 -0.004654)
147:   3178.40   0.000876    4.43  0.000086  ( 0.004052 -0.008172 -0.001682)
148:   3393.18   0.063880  322.82  0.005875  ( 0.033545 -0.055900  0.040310)
149:   3447.01   0.048830  246.76  0.004421  (-0.051139 -0.005782  0.042095)
150:   3491.63   0.023886  120.71  0.002135  (-0.003106 -0.030855  0.034251)
151:   3514.93   0.001626    8.22  0.000144  ( 0.003694  0.009549 -0.006287)
152:   3602.76   0.012795   64.66  0.001108  ( 0.000118  0.006855  0.032578)

* The epsilon (eps) is given for a Dirac delta lineshape.
** The dipole moment derivative (T) already includes vibrational overlap.

The first frequency considered to be a vibration is 6
The total number of vibrations considered is 147


--------------------------
THERMOCHEMISTRY AT 298.15K
--------------------------

Temperature         ...   298.15 K
Pressure            ...     1.00 atm
Total Mass          ...   441.40 AMU
Quasi RRHO          ...     True
Cut-Off Frequency   ...     1.00 cm^-1

Throughout the following assumptions are being made:
  (1) The electronic state is orbitally nondegenerate
  (2) There are no thermally accessible electronically excited states
  (3) Hindered rotations indicated by low frequency modes are not
      treated as such but are treated as vibrations and this may
      cause some error
  (4) All equations used are the standard statistical mechanics
      equations for an ideal gas
  (5) All vibrations are strictly harmonic

freq.      35.45  E(vib)   ...       0.54 
freq.      41.35  E(vib)   ...       0.54 
freq.      44.35  E(vib)   ...       0.53 
freq.      55.07  E(vib)   ...       0.52 
freq.      69.22  E(vib)   ...       0.50 
freq.      91.06  E(vib)   ...       0.47 
freq.      97.43  E(vib)   ...       0.46 
freq.     101.44  E(vib)   ...       0.46 
freq.     104.17  E(vib)   ...       0.46 
freq.     113.75  E(vib)   ...       0.44 
freq.     130.82  E(vib)   ...       0.43 
freq.     138.68  E(vib)   ...       0.42 
freq.     162.37  E(vib)   ...       0.39 
freq.     168.34  E(vib)   ...       0.38 
freq.     173.14  E(vib)   ...       0.38 
freq.     178.39  E(vib)   ...       0.37 
freq.     183.93  E(vib)   ...       0.37 
freq.     210.50  E(vib)   ...       0.34 
freq.     246.67  E(vib)   ...       0.31 
freq.     253.99  E(vib)   ...       0.30 
freq.     270.92  E(vib)   ...       0.29 
freq.     279.88  E(vib)   ...       0.28 
freq.     303.15  E(vib)   ...       0.26 
freq.     307.99  E(vib)   ...       0.26 
freq.     322.48  E(vib)   ...       0.25 
freq.     357.82  E(vib)   ...       0.22 
freq.     362.07  E(vib)   ...       0.22 
freq.     375.53  E(vib)   ...       0.21 
freq.     393.30  E(vib)   ...       0.20 
freq.     403.29  E(vib)   ...       0.19 
freq.     413.79  E(vib)   ...       0.19 
freq.     430.80  E(vib)   ...       0.18 
freq.     434.04  E(vib)   ...       0.17 
freq.     470.93  E(vib)   ...       0.15 
freq.     484.27  E(vib)   ...       0.15 
freq.     490.96  E(vib)   ...       0.14 
freq.     512.80  E(vib)   ...       0.13 
freq.     520.96  E(vib)   ...       0.13 
freq.     535.53  E(vib)   ...       0.12 
freq.     549.65  E(vib)   ...       0.12 
freq.     569.96  E(vib)   ...       0.11 
freq.     580.77  E(vib)   ...       0.11 
freq.     600.04  E(vib)   ...       0.10 
freq.     607.34  E(vib)   ...       0.10 
freq.     626.48  E(vib)   ...       0.09 
freq.     633.89  E(vib)   ...       0.09 
freq.     650.01  E(vib)   ...       0.08 
freq.     654.72  E(vib)   ...       0.08 
freq.     659.40  E(vib)   ...       0.08 
freq.     670.86  E(vib)   ...       0.08 
freq.     687.66  E(vib)   ...       0.07 
freq.     696.41  E(vib)   ...       0.07 
freq.     710.86  E(vib)   ...       0.07 
freq.     720.94  E(vib)   ...       0.07 
freq.     725.15  E(vib)   ...       0.06 
freq.     743.54  E(vib)   ...       0.06 
freq.     753.61  E(vib)   ...       0.06 
freq.     764.10  E(vib)   ...       0.06 
freq.     774.23  E(vib)   ...       0.05 
freq.     793.19  E(vib)   ...       0.05 
freq.     807.16  E(vib)   ...       0.05 
freq.     809.44  E(vib)   ...       0.05 
freq.     813.07  E(vib)   ...       0.05 
freq.     838.78  E(vib)   ...       0.04 
freq.     841.65  E(vib)   ...       0.04 
freq.     855.42  E(vib)   ...       0.04 
freq.     886.61  E(vib)   ...       0.04 
freq.     925.12  E(vib)   ...       0.03 
freq.     928.41  E(vib)   ...       0.03 
freq.     930.04  E(vib)   ...       0.03 
freq.     944.38  E(vib)   ...       0.03 
freq.     946.29  E(vib)   ...       0.03 
freq.     949.49  E(vib)   ...       0.03 
freq.     970.13  E(vib)   ...       0.03 
freq.     984.69  E(vib)   ...       0.02 
freq.     996.24  E(vib)   ...       0.02 
freq.    1023.57  E(vib)   ...       0.02 
freq.    1026.12  E(vib)   ...       0.02 
freq.    1032.58  E(vib)   ...       0.02 
freq.    1041.77  E(vib)   ...       0.02 
freq.    1081.76  E(vib)   ...       0.02 
freq.    1118.01  E(vib)   ...       0.01 
freq.    1125.60  E(vib)   ...       0.01 
freq.    1148.28  E(vib)   ...       0.01 
freq.    1168.36  E(vib)   ...       0.01 
freq.    1173.47  E(vib)   ...       0.01 
freq.    1203.17  E(vib)   ...       0.01 
freq.    1209.19  E(vib)   ...       0.01 
freq.    1217.63  E(vib)   ...       0.01 
freq.    1222.64  E(vib)   ...       0.01 
freq.    1225.18  E(vib)   ...       0.01 
freq.    1252.71  E(vib)   ...       0.01 
freq.    1271.11  E(vib)   ...       0.01 
freq.    1279.24  E(vib)   ...       0.01 
freq.    1283.79  E(vib)   ...       0.01 
freq.    1310.34  E(vib)   ...       0.01 
freq.    1318.91  E(vib)   ...       0.01 
freq.    1335.83  E(vib)   ...       0.01 
freq.    1345.56  E(vib)   ...       0.01 
freq.    1352.37  E(vib)   ...       0.01 
freq.    1355.27  E(vib)   ...       0.01 
freq.    1359.04  E(vib)   ...       0.01 
freq.    1362.44  E(vib)   ...       0.01 
freq.    1372.98  E(vib)   ...       0.01 
freq.    1384.07  E(vib)   ...       0.00 
freq.    1391.23  E(vib)   ...       0.00 
freq.    1401.52  E(vib)   ...       0.00 
freq.    1444.25  E(vib)   ...       0.00 
freq.    1448.32  E(vib)   ...       0.00 
freq.    1469.61  E(vib)   ...       0.00 
freq.    1484.86  E(vib)   ...       0.00 
freq.    1488.03  E(vib)   ...       0.00 
freq.    1491.71  E(vib)   ...       0.00 
freq.    1496.46  E(vib)   ...       0.00 
freq.    1504.15  E(vib)   ...       0.00 
freq.    1506.55  E(vib)   ...       0.00 
freq.    1529.02  E(vib)   ...       0.00 
freq.    1533.76  E(vib)   ...       0.00 
freq.    1560.41  E(vib)   ...       0.00 
freq.    1576.19  E(vib)   ...       0.00 
freq.    1590.10  E(vib)   ...       0.00 
freq.    1621.50  E(vib)   ...       0.00 
freq.    1636.51  E(vib)   ...       0.00 
freq.    1643.94  E(vib)   ...       0.00 
freq.    1691.41  E(vib)   ...       0.00 
freq.    1703.86  E(vib)   ...       0.00 
freq.    1731.10  E(vib)   ...       0.00 
freq.    1751.66  E(vib)   ...       0.00 
freq.    2839.19  E(vib)   ...       0.00 
freq.    3000.39  E(vib)   ...       0.00 
freq.    3003.56  E(vib)   ...       0.00 
freq.    3023.80  E(vib)   ...       0.00 
freq.    3042.19  E(vib)   ...       0.00 
freq.    3044.40  E(vib)   ...       0.00 
freq.    3061.30  E(vib)   ...       0.00 
freq.    3071.39  E(vib)   ...       0.00 
freq.    3092.99  E(vib)   ...       0.00 
freq.    3119.89  E(vib)   ...       0.00 
freq.    3132.56  E(vib)   ...       0.00 
freq.    3154.96  E(vib)   ...       0.00 
freq.    3168.99  E(vib)   ...       0.00 
freq.    3178.40  E(vib)   ...       0.00 
freq.    3393.18  E(vib)   ...       0.00 
freq.    3447.01  E(vib)   ...       0.00 
freq.    3491.63  E(vib)   ...       0.00 
freq.    3514.93  E(vib)   ...       0.00 
freq.    3602.76  E(vib)   ...       0.00 

------------
INNER ENERGY
------------

The inner energy is: U= E(el) + E(ZPE) + E(vib) + E(rot) + E(trans)
    E(el)   - is the total energy from the electronic structure calculation
              = E(kin-el) + E(nuc-el) + E(el-el) + E(nuc-nuc)
    E(ZPE)  - the the zero temperature vibrational energy from the frequency calculation
    E(vib)  - the the finite temperature correction to E(ZPE) due to population
              of excited vibrational states
    E(rot)  - is the rotational thermal energy
    E(trans)- is the translational thermal energy

Summary of contributions to the inner energy U:
Electronic energy                ...  -1569.49296808 Eh
Zero point energy                ...      0.38854394 Eh     243.81 kcal/mol
Thermal vibrational correction   ...      0.02381209 Eh      14.94 kcal/mol
Thermal rotational correction    ...      0.00141627 Eh       0.89 kcal/mol
Thermal translational correction ...      0.00141627 Eh       0.89 kcal/mol
-----------------------------------------------------------------------
Total thermal energy                  -1569.07777950 Eh


Summary of corrections to the electronic energy:
(perhaps to be used in another calculation)
Total thermal correction                  0.02664464 Eh      16.72 kcal/mol
Non-thermal (ZPE) correction              0.38854394 Eh     243.81 kcal/mol
-----------------------------------------------------------------------
Total correction                          0.41518858 Eh     260.53 kcal/mol


--------
ENTHALPY
--------

The enthalpy is H = U + kB*T
                kB is Boltzmann's constant
Total thermal energy              ...  -1569.07777950 Eh 
Thermal Enthalpy correction       ...      0.00094421 Eh       0.59 kcal/mol
-----------------------------------------------------------------------
Total Enthalpy                    ...  -1569.07683529 Eh


Note: Only C1 symmetry has been detected, increase convergence thresholds 
      if your molecule has a higher symmetry. Symmetry factor of 1.0 is   
      used for the rotational entropy correction. 
 

Note: Rotational entropy computed according to Herzberg 
Infrared and Raman Spectra, Chapter V,1, Van Nostrand Reinhold, 1945 
Point Group:  C1, Symmetry Number:   1  
Rotational constants in cm-1:     0.007471     0.004138     0.003816 

Vibrational entropy computed according to the QRRHO of S. Grimme
Chem.Eur.J. 2012 18 9955 using a reference frequency of 100.0 cm-1


-------
ENTROPY
-------

The entropy contributions are T*S = T*(S(el)+S(vib)+S(rot)+S(trans))
     S(el)   - electronic entropy
     S(vib)  - vibrational entropy
     S(rot)  - rotational entropy
     S(trans)- translational entropy
The entropies will be listed as multiplied by the temperature to get
units of energy

Electronic entropy                ...      0.00000000 Eh      0.00 kcal/mol
Vibrational entropy               ...      0.04142834 Eh     26.00 kcal/mol
Rotational entropy                ...      0.01704190 Eh     10.69 kcal/mol
Translational entropy             ...      0.02097411 Eh     13.16 kcal/mol
-----------------------------------------------------------------------
Final entropy term                ...      0.07944435 Eh     49.85 kcal/mol

In case the symmetry of your molecule has not been determined correctly
or in case you have a reason to use a different symmetry number we print 
out the resulting rotational entropy values for sn=1,12:

 non-linear molecules -----------------------------------
|  sn= 1 | S(rot)=       0.01704190 Eh     10.69 kcal/mol|
|  sn= 2 | S(rot)=       0.01638744 Eh     10.28 kcal/mol|
|  sn= 3 | S(rot)=       0.01600461 Eh     10.04 kcal/mol|
|  sn= 4 | S(rot)=       0.01573299 Eh      9.87 kcal/mol|
|  sn= 5 | S(rot)=       0.01552230 Eh      9.74 kcal/mol|
|  sn= 6 | S(rot)=       0.01535016 Eh      9.63 kcal/mol|
|  sn= 7 | S(rot)=       0.01520461 Eh      9.54 kcal/mol|
|  sn= 8 | S(rot)=       0.01507853 Eh      9.46 kcal/mol|
|  sn= 9 | S(rot)=       0.01496732 Eh      9.39 kcal/mol|
|  sn=10 | S(rot)=       0.01486784 Eh      9.33 kcal/mol|
|  sn=11 | S(rot)=       0.01477785 Eh      9.27 kcal/mol|
|  sn=12 | S(rot)=       0.01469570 Eh      9.22 kcal/mol|
 linear molecules ---------------------------------------
|  Dinfh | S(rot)=       0.01058351 Eh      6.64 kcal/mol|
|  Cinfv | S(rot)=       0.01123797 Eh      7.05 kcal/mol|
 --------------------------------------------------------


-------------------
GIBBS FREE ENERGY
-------------------

The Gibbs free energy is G = H - T*S

Total enthalpy                    ...  -1569.07683529 Eh 
Total entropy correction          ...     -0.07944435 Eh    -49.85 kcal/mol
-----------------------------------------------------------------------
Final Gibbs free energy         ...  -1569.15627964 Eh

For completeness - the Gibbs free energy minus the electronic energy
G-E(el)                           ...      0.33668844 Eh    211.27 kcal/mol


Maximum memory used throughout the entire PROP-calculation: 206.5 MB

--------------------------------
SUGGESTED CITATIONS FOR THIS RUN
--------------------------------

Below you find a list of papers that are relevant to this ORCA run
We neither can nor want to force you to cite these papers, but we appreciate if you do
You receive ORCA, which is the product of decades of hard work by many enthusiastic individuals, for free
The only thing we kindly ask in return is that you cite our papers,
We deeply appreciate it, if you show your appreciation for ORCA by not just citing the generic ORCA reference.

Please note that relegating all ORCA citations to the supporting information does *not* help us.
SI sections are not indexed - citations you put there will not count into any citation statistics
But we need these citations in order to attract the funding resources that allow us to do what we are doing

Therefore, if you are a happy ORCA user, please consider citing a few of the papers listed below in the main body of your paper

In addition to the list printed below, the program has created the file m1_00_Vitamin_B9-GFN1_00000-B97-3C-TZ.bibtex that contains the list in bibtex format
You can import this file easily into all common literature databanks and citation aid programs


List of essential papers. We consider these as the minimum necessary citations

  1. Neese,F.
     Software update: the ORCA program system, version 5.0
     WIRES Comput. Molec. Sci., 2022 12(1)e1606
     doi.org/10.1002/wcms.1606

List of papers to cite with high priority. The work reported in these papers was absolutely
necessary for this run to complete.
Our perspective: the developers of density functionals and basis sets usually get cited in chemistry papers
Good! But without the algorithms to do something with them, the functionals or basis sets would not do anything.
Hence, in our opinion, the algorithm design and method developments papers are equally worthy of getting cited

  1. Neese,F.
     An improvement of the resolution of the identity approximation for the formation of the Coulomb matrix
     J. Comp. Chem., 2003 24(14)1740-1747
     doi.org/10.1002/jcc.10318
  2. Bykov,D.; Petrenko,T.; Izsak,R.; Kossmann,S.; Becker,U.; Valeev,E.; Neese,F.
     Efficient implementation of the analytic second derivatives of Hartree-Fock and hybrid DFT energies: a detailed analysis of different approximations
     Molec. Phys., 2015 113 1961-1977
     doi.org/10.1080/00268976.2015.1025114
  3. Neese,F.
     The SHARK Integral Generation and Digestion System
     J. Comp. Chem., 2022  1-16
     doi.org/10.1002/jcc.26942
  4. Grimme,S.; Antony,J.; Ehrlich,S.; Krieg,H.
     A consistent and accurate ab initio parametrization of density functional dispersion correction (DFT-D) for the 94 elements H-Pu
     J. Chem. Phys., 2010 132 154104
     doi.org/10.1063/1.3382344
  5. Grimme,S.; Ehrlich,S.; Goerigk,L.
     Effect of the damping function in dispersion corrected density functional theory
     J. Comput. Chem., 2011 32(7)1456-1465
     doi.org/10.1002/jcc.21759

List of suggested additional citations. These are papers that are important in the 'surrounding' of 
of this run, or papers that preceded the highly important papers. If you like your results we are grateful for a citation.

  1. Neese,F.
     The ORCA program system
     WIRES Comput. Molec. Sci., 2012 2(1)73-78
     doi.org/10.1002/wcms.81
  2. Neese,F.
     Software update: the ORCA program system, version 4.0
     WIRES Comput. Molec. Sci., 2018 8(1)1-6
     doi.org/10.1002/wcms.1327
  3. Neese,F.; Wennmohs,F.; Becker,U.; Riplinger,C.
     The ORCA quantum chemistry program package
     J. Chem. Phys., 2020 152 Art. No. L224108
     doi.org/10.1063/5.0004608

List of optional additional citations

  1. Neese,F.
     Approximate second-order SCF convergence for spin unrestricted wavefunctions
     Chem. Phys. Lett., 2000 325(1-3)93-98
     doi.org/10.1016/s0009-2614(00)00662-x

Timings for individual modules:

Sum of individual times          ...     1614.364 sec (=  26.906 min)
Startup calculation              ...      107.139 sec (=   1.786 min)   6.6 %
SCF iterations                   ...      410.441 sec (=   6.841 min)  25.4 %
Property integrals               ...      316.458 sec (=   5.274 min)  19.6 %
SCF Response                     ...      477.092 sec (=   7.952 min)  29.6 %
Property calculations            ...      107.450 sec (=   1.791 min)   6.7 %
SCF Gradient evaluation          ...      195.472 sec (=   3.258 min)  12.1 %
Geometry relaxation              ...        0.311 sec (=   0.005 min)   0.0 %
                             ****ORCA TERMINATED NORMALLY****
TOTAL RUN TIME: 0 days 0 hours 26 minutes 58 seconds 494 msec
