
                                 *****************
                                 * O   R   C   A *
                                 *****************

                                            #,                                       
                                            ###                                      
                                            ####                                     
                                            #####                                    
                                            ######                                   
                                           ########,                                 
                                     ,,################,,,,,                         
                               ,,#################################,,                 
                          ,,##########################################,,             
                       ,#########################################, ''#####,          
                    ,#############################################,,   '####,        
                  ,##################################################,,,,####,       
                ,###########''''           ''''###############################       
              ,#####''   ,,,,##########,,,,          '''####'''          '####       
            ,##' ,,,,###########################,,,                        '##       
           ' ,,###''''                  '''############,,,                           
         ,,##''                                '''############,,,,        ,,,,,,###''
      ,#''                                            '''#######################'''  
     '                                                          ''''####''''         
             ,#######,   #######,   ,#######,      ##                                
            ,#'     '#,  ##    ##  ,#'     '#,    #''#        ,####,   ,####,        
            ##       ##  ##   ,#'  ##            #'  '#       #'       #'  '#        
            ##       ##  #######   ##           ,######,      #####,   #    #        
            '#,     ,#'  ##    ##  '#,     ,#' ,#      #,     #,   #   #,  ,#        
             '#######'   ##     ##  '#######'  #'      '#     '####' # '####'        



                #########################################################
                #                        -***-                          #
                #          Department of theory and spectroscopy        #
                #                                                       #
                #                      Frank Neese                      #
                #                                                       #
                #     Directorship, Architecture, Infrastructure        #
                #                    SHARK, DRIVERS                     #
                #        Core code/Algorithms in most modules           #
                #                                                       #
                #        Max Planck Institute fuer Kohlenforschung      #
                #                Kaiser Wilhelm Platz 1                 #
                #                 D-45470 Muelheim/Ruhr                 #
                #                      Germany                          #
                #                                                       #
                #                  All rights reserved                  #
                #                        -***-                          #
                #########################################################


                         Program Version 6.0.1  -  RELEASE   -


 With contributions from (in alphabetic order):
[Max-Planck-Institut fuer Kohlenforschung]                               
  Daniel Aravena         : Magnetic Suceptibility                        
  Michael Atanasov       : Ab Initio Ligand Field Theory (pilot matlab implementation)
  Alexander A. Auer      : GIAO ZORA, VPT2 properties, NMR spectrum      
  Ute Becker             : All parallelization in ORCA, NUMFREQ, NUMCALC 
  Giovanni Bistoni       : ED, misc. LED, open-shell LED, HFLD           
  Martin Brehm           : Molecular dynamics                            
  Dmytro Bykov           : pre 5.0 version of the SCF Hessian            
  Marcos Casanova-Páez   : Triplet and SCS-CIS(D). UHF-(DLPNO)-IP/EA/STEOM-CCSD. UHF-CVS-IP/STEOM-CCSD   
  Vijay G. Chilkuri      : MRCI spin determinant printing, contributions to CSF-ICE 
  Pauline Colinet        : FMM embedding                                 
  Dipayan Datta          : RHF DLPNO-CCSD density                        
  Achintya Kumar Dutta   : EOM-CC, STEOM-CC                              
  Nicolas Foglia         : Exact transition moments, OPA infrastructure, MCD improvements    
  Dmitry Ganyushin       : Spin-Orbit,Spin-Spin,Magnetic field MRCI      
  Miquel Garcia-Rates    : C-PCM and meta-GGA Hessian, CCSD/C-PCM, Gaussian charge scheme 
  Tiago L. C. Gouveia    : GS-ROHF, GS-ROCIS                             
  Yang Guo               : DLPNO-NEVPT2, F12-NEVPT2, CIM, IAO-localization        
  Andreas Hansen         : Spin unrestricted coupled pair/coupled cluster methods 
  Ingolf Harden          : AUTO-CI MPn and infrastructure                
  Benjamin Helmich-Paris : MC-RPA, TRAH-(SCF,CASSCF), AVAS, COSX integrals, SCF dyn. polar. 
  Lee Huntington         : MR-EOM, pCC                                   
  Robert Izsak           : Overlap fitted RIJCOSX, COSX-SCS-MP3, EOM     
  Riya Kayal             : Wick's Theorem for AUTO-CI, AUTO-CI UHF-CCSDT 
  Emily Kempfer          : AUTO-CI, RHF CISDT and CCSDT                  
  Christian Kollmar      : KDIIS, OOCD, Brueckner-CCSD(T), CCSD density, CASPT2, CASPT2-K, improved NEVPT2 
  Axel Koslowski         : Symmetry handling                             
  Simone Kossmann        : meta-GGA functionals, TD-DFT gradient, OOMP2, (MP2 Hessian; deprecated post 5.0) 
  Lucas Lang             : DCDCAS                                        
  Marvin Lechner         : AUTO-CI (C++ implementation), FIC-MRCC        
  Spencer Leger          : CASSCF response                               
  Dagmar Lenk            : GEPOL surface, SMD, ORCA-2-JSON               
  Dimitrios Liakos       : Extrapolation schemes; Compound Job, initial MDCI parallelization 
  Dimitrios Manganas     : Further ROCIS development; embedding schemes. LFT, Crystal Embedding 
  Dimitrios Pantazis     : SARC Basis sets                               
  Anastasios Papadopoulos: AUTO-CI, single reference methods and gradients 
  Taras Petrenko         : pre 6.0 DFT Hessian and TD-DFT gradient, (ASA, deprecated), ECA, 1-Electron XAS/XES, NRVS 
  Peter Pinski           : DLPNO-MP2, DLPNO-MP2 Gradient                 
  Christoph Reimann      : Effective Core Potentials                     
  Marius Retegan         : Local ZFS, SOC                                
  Christoph Riplinger    : Optimizer, TS searches, QM/MM, DLPNO-CCSD(T), (RO)-DLPNO pert. Triples 
  Michael Roemelt        : Original ROCIS implementation                 
  Masaaki Saitow         : Open-shell DLPNO-CCSD energy and density      
  Barbara Sandhoefer     : DKH picture change effects                    
  Kantharuban Sivalingam : CASSCF convergence/infrastructure, NEVPT2 and variants, FIC-MRCI 
  Bernardo de Souza      : ESD, SOC TD-DFT                               
  Georgi L. Stoychev     : AutoAux, RI-MP2 NMR, DLPNO-MP2 response, X2C  
  Van Anh Tran           : RI-MP2 g-tensors                              
  Willem Van den Heuvel  : Paramagnetic NMR                              
  Zikuan Wang            : NOTCH, Electric field optimization            
  Frank Wennmohs         : Technical directorship and infrastructure     
  Hang Xu                : AUTO-CI-Response properties                   
                                                                         
[FACCTs GmbH]                                                            
  Markus Bursch, Miquel Garcia-Rates, Christoph Riplinger, Bernardo de Souza, Georgi L. Stoychev 
                                                                 
  APM, Basis sets (HGBS, AHGBS, def-TZVP (Ac-Lr), def2-XVPD (La-Lu)), CI-OPT, improved COSX, DLPNO-Multilevel,           
  DOCKER, DRACO, updates on ESD, GOAT, IRC, LR-CPCM, MBIS, meta-GGA TD-DFT gradient, ML-optimized integration grids, 
  MM, NACMEs, nearIR, NEB, NEB-TS, NL-DFT gradient (VV10), 2- and 3-layer-ONIOM, interface openCOSMO-RS, QMMM,   
  Crystal-QMMM, SF, symmetry and pop. for TD-DFT, r2SCAN hybrids, SOLVATOR                                   
                                                                         
[Other institutions]                                                     
  V. Asgeirsson          : NEB                                           
  Christoph Bannwarth    : sTDA-DFT, sTD-DFT, PBEh-3c, B97-3c, D3        
  Sebastian Ehlert       : rSCAN, r2SCAN, r2SCAN-3c, D4, dhf basis sets  
  Marvin Friede          : D4 for Fr, Ra, Ac-Lr                          
  Lars Goerigk           : TD-DFT with DH, B97 family of functionals     
  Stefan Grimme          : VdW corrections, initial TS optimization, DFT functionals, gCP, sTDA/sTD-DF 
  Waldemar Hujo          : DFT-NL                                        
  H. Jonsson             : NEB                                           
  Holger Kruse           : gCP                                           
  Marcel Mueller         : wB97X-3c, vDZP basis set                      
  Hagen Neugebauer       : wr2SCAN                                       
  Tobias Risthaus        : range-separated hybrid DFT                    
  Lukas Wittmann         : regularized MP2, r2SCAN double-hybrids, wr2SCAN        
                                                                         
We gratefully acknowledge several colleagues who have allowed us to      
interface, adapt or use parts of their codes:                            
  Ed Valeev, F. Pavosevic, A. Kumar             : LibInt (2-el integral package), F12 methods 
  Garnet Chan, S. Sharma, J. Yang, R. Olivares  : DMRG                   
  Ulf Ekstrom                                   : XCFun DFT Library      
  Mihaly Kallay                                 : mrcc  (arbitrary order and MRCC methods)
  Frank Weinhold                                : gennbo (NPA and NBO analysis)           
  Simon Mueller                                 : openCOSMO-RS                            
  Christopher J. Cramer and Donald G. Truhlar   : smd solvation model                     
  S Lehtola, MJT Oliveira, MAL Marques          : LibXC Library                           
  Liviu Ungur et al                             : ANISO software                          


 Your calculation uses the libint2 library for the computation of 2-el integrals
 For citations please refer to: http://libint.valeyev.net

 Your ORCA version has been built with support for libXC version: 6.2.2
 For citations please refer to: https://libxc.gitlab.io

 This ORCA versions uses:
   CBLAS   interface :  Fast vector & matrix operations
   LAPACKE interface :  Fast linear algebra routines
   SCALAPACK package :  Parallel linear algebra routines
   Shared memory     :  Shared parallel matrices
   BLAS/LAPACK       :  OpenBLAS 0.3.27  USE64BITINT DYNAMIC_ARCH NO_AFFINITY Zen SINGLE_THREADED
        Core in use  :  Zen
   Copyright (c) 2011-2014, The OpenBLAS Project


NOTE: MaxCore=6000 MB was set to SCF,MP2,MDCI,CIPSI,MRCI and CIS
      => If you want to overwrite this, your respective input block should be placed after the MaxCore statement
Your calculation utilizes the atom-pairwise dispersion correction
with the Becke-Johnson damping scheme (D3BJ)


Your calculation employs the composite approach B97-3c by Grimme and coworkers.
For the correct reference, please check the publication list of the Grimme group:
http://www.thch.uni-bonn.de/tc/index.php?section=publikationen&subsection=grimme#2017
   

XCFun DFT library Copyright 2009-2010 Ulf Ekstrom and contributors.
See http://admol.org/xcfun for more information.
This is free software; see the source code for copying conditions.
There is ABSOLUTELY NO WARRANTY; not even for MERCHANTABILITY or FITNESS FOR A PARTICULAR PURPOSE.
For details see the documentation.
Scientific users of this library should cite U. Ekstrom, L. Visscher, R. Bast, A. J. Thorvaldsen and K. Ruud;
J.Chem.Theor.Comp. 2010, DOI: 10.1021/ct100117s
XCFun Version 0.99 

================================================================================

----- Orbital basis set information -----
Your calculation utilizes the basis: def2-mTZVP
----- AuxJ basis set information -----
Your calculation utilizes the basis: def2-mTZVP/J
================================================================================
                                        WARNINGS
                       Please study these warnings very carefully!
================================================================================


WARNING: Geometry Optimization
  ===> : Switching off AutoStart
         For restart on a previous wavefunction, please use MOREAD

================================================================================
                                       INPUT FILE
================================================================================
NAME = m1_01_Vitamin_B1-QM3_07-B97-3C-TZ.inp
|  1> %pal nprocs 16 end
|  2> %MaxCore 6000
|  3> # put your comments here
|  4> ! B97-3C  OPT  FREQ DEFGRID3 NOTRAH
|  5> %scf MaxIter 800 end
|  6> %output
|  7> Print [P_Hirshfeld] 1
|  8> end
|  9> %geom
| 10> MaxIter 3000
| 11>  TolE 1e-6 #TolE 5e-6 Energy change (a.u.)
| 12>  TolRMSG 3e-5 #TolRMSG 1e-4 RMS gradient (a.u.)
| 13>  TolMaxG 1e-4 #TolMaxG 3e-3 Max. element of gradient (a.u.)
| 14>  TolRMSD 2e-3 #TolRMSD 2e-3 RMS displacement (a.u.)
| 15>  TolMaxD 4e-3 #TolMaxD 4e-3 Max. displacement (a.u.)
| 16> end
| 17> * xyz 1 1
| 18>  S       2.26117007       0.57822010       0.78955883
| 19>  O       3.94403166       1.50012663       2.70302791
| 20>  N      -0.19928114       0.09551518       0.57429361
| 21>  N      -0.81284192      -1.53540776      -3.40462251
| 22>  N      -1.96209752       0.51031075      -3.64488954
| 23>  N      -0.25539222      -2.42732608      -1.34101553
| 24>  C       0.01844935       0.23054460       1.95110097
| 25>  C      -1.53975603      -0.18387363       0.00405831
| 26>  C       1.31346399       0.49323835       2.24002098
| 27>  C       1.93090028       0.64620900       3.59102549
| 28>  C      -1.49364366      -0.33828701      -1.46230209
| 29>  C       0.89040198       0.25091416      -0.13616199
| 30>  C      -1.12192508       0.07064675       2.89545319
| 31>  C       2.93404356       1.77691263       3.64598203
| 32>  C      -0.88254665      -1.45111709      -2.07785619
| 33>  C      -2.02429045       0.61357696      -2.32767632
| 34>  C      -1.35163068      -0.57407763      -4.15435630
| 35>  C      -1.28446960      -0.71186059      -5.64572342
| 36>  H      -2.18506269       0.64804295       0.28903296
| 37>  H      -1.89628574      -1.08067941       0.51501678
| 38>  H       2.44697563      -0.28266108       3.85091287
| 39>  H       1.14295854       0.80282179       4.33122310
| 40>  H       0.88468991       0.18867912      -1.21044268
| 41>  H      -1.91429938       0.78476581       2.66638838
| 42>  H      -1.53677669      -0.93690056       2.83176795
| 43>  H      -0.78576869       0.23931882       3.91420622
| 44>  H       3.33686671       1.85043692       4.66520855
| 45>  H       2.44444223       2.73386069       3.42061626
| 46>  H      -2.51553909       1.50040791      -1.92430227
| 47>  H      -0.63597929      -2.64836427      -0.43572587
| 48>  H       0.02385402      -3.22958623      -1.88701788
| 49>  H       4.68111344       2.11292499       2.80724792
| 50>  H      -0.56348812      -1.47861498      -5.92218211
| 51>  H      -2.27237762      -0.99504264      -6.01810398
| 52>  H      -1.01990912       0.24632488      -6.09376362
| 53> *
| 54> 
| 55> 
| 56> 
| 57> 
| 58>                          ****END OF INPUT****
================================================================================

                       *****************************
                       * Geometry Optimization Run *
                       *****************************

Geometry optimization settings:
Update method            Update   .... BFGS
Choice of coordinates    CoordSys .... (2022) Redundant Internals
Initial Hessian          InHess   .... Almloef's Model
Max. no of cycles        MaxIter  .... 3000

Convergence Tolerances:
Energy Change            TolE     ....  1.0000e-06 Eh
Max. Gradient            TolMAXG  ....  1.0000e-04 Eh/bohr
RMS Gradient             TolRMSG  ....  3.0000e-05 Eh/bohr
Max. Displacement        TolMAXD  ....  4.0000e-03 bohr
RMS Displacement         TolRMSD  ....  2.0000e-03 bohr
Strict Convergence                .... False

------------------------------------------------------------------------------
                        ORCA OPTIMIZATION COORDINATE SETUP
------------------------------------------------------------------------------

The optimization will be done in redundant internal coordinates (2022)
Making redundant internal coordinates   ...  (2022 redundants) done
Evaluating the initial hessian          ...  (Almloef) done
Evaluating the coordinates              ...  done
Calculating the B-matrix                .... done
Calculating the G-matrix                .... done
Diagonalizing the G-matrix              .... done
Small eigenvalue found = 2.933e-03
Small eigenvalue found = 8.249e-03
Small eigenvalue found = 1.750e-02
Small eigenvalue found = 1.994e-02
Small eigenvalue found = 2.385e-02
The first mode is                       ....   68
The number of degrees of freedom        ....   99

    -----------------------------------------------------------------
                    Redundant Internal Coordinates


    -----------------------------------------------------------------
         Definition                    Initial Value    Approx d2E/dq
    -----------------------------------------------------------------
      1. B(C   6,N   2)                  1.4004         0.538537   
      2. B(C   7,N   2)                  1.4833         0.397250   
      3. B(C   8,S   0)                  1.7347         0.474841   
      4. B(C   8,C   6)                  1.3526         0.716798   
      5. B(C   9,C   8)                  1.4933         0.427549   
      6. B(C  10,C   7)                  1.4752         0.456904   
      7. B(C  11,S   0)                  1.6861         0.567573   
      8. B(C  11,N   2)                  1.3101         0.750560   
      9. B(C  12,C   6)                  1.4892         0.433925   
     10. B(C  13,C   9)                  1.5125         0.398307   
     11. B(C  13,O   1)                  1.4092         0.521484   
     12. B(C  14,C  10)                  1.4109         0.578547   
     13. B(C  14,N   5)                  1.3745         0.592393   
     14. B(C  14,N   3)                  1.3313         0.694352   
     15. B(C  15,N   4)                  1.3227         0.716506   
     16. B(C  15,C  10)                  1.3916         0.621173   
     17. B(C  16,N   4)                  1.3447         0.661004   
     18. B(C  16,N   3)                  1.3329         0.690269   
     19. B(C  17,C  16)                  1.4992         0.418292   
     20. B(H  18,C   7)                  1.0907         0.359121   
     21. B(H  19,C   7)                  1.0920         0.357471   
     22. B(H  20,C   9)                  1.0939         0.354943   
     23. B(H  21,C   9)                  1.0924         0.356978   
     24. B(H  22,C  11)                  1.0761         0.378970   
     25. B(H  23,C  12)                  1.0910         0.358772   
     26. B(H  24,C  12)                  1.0915         0.358159   
     27. B(H  25,C  12)                  1.0860         0.365484   
     28. B(H  26,C  13)                  1.0984         0.349150   
     29. B(H  27,C  13)                  1.0983         0.349294   
     30. B(H  28,C  15)                  1.0911         0.358644   
     31. B(H  29,N   5)                  1.0066         0.438138   
     32. B(H  30,N   5)                  1.0098         0.433008   
     33. B(H  31,O   1)                  0.9642         0.512003   
     34. B(H  32,C  17)                  1.0882         0.362503   
     35. B(H  33,C  17)                  1.0931         0.356050   
     36. B(H  34,C  17)                  1.0903         0.359644   
     37. A(C   8,S   0,C  11)           90.3099         0.453696   
     38. A(C  13,O   1,H  31)          110.5321         0.358377   
     39. A(C   6,N   2,C  11)          113.1035         0.432292   
     40. A(C   7,N   2,C  11)          124.4406         0.409444   
     41. A(C   6,N   2,C   7)          122.4540         0.386250   
     42. A(C  14,N   3,C  16)          119.5881         0.445789   
     43. A(C  15,N   4,C  16)          117.4910         0.444829   
     44. A(C  14,N   5,H  29)          117.7469         0.356657   
     45. A(C  14,N   5,H  30)          113.6140         0.355945   
     46. A(H  29,N   5,H  30)          114.6060         0.303897   
     47. A(C   8,C   6,C  12)          128.2099         0.417916   
     48. A(N   2,C   6,C  12)          119.6046         0.394767   
     49. A(N   2,C   6,C   8)          112.1836         0.431553   
     50. A(C  10,C   7,H  19)          112.9143         0.334883   
     51. A(N   2,C   7,H  19)          105.6563         0.325259   
     52. A(C  10,C   7,H  18)          110.9794         0.335140   
     53. A(N   2,C   7,C  10)          111.9384         0.377770   
     54. A(H  18,C   7,H  19)          108.1174         0.290381   
     55. A(N   2,C   7,H  18)          106.8915         0.325505   
     56. A(S   0,C   8,C   6)          110.7304         0.448260   
     57. A(C   6,C   8,C   9)          127.5189         0.416816   
     58. A(S   0,C   8,C   9)          121.7068         0.408607   
     59. A(C   8,C   9,C  13)          112.5616         0.375995   
     60. A(C  13,C   9,H  20)          108.2547         0.326980   
     61. A(H  20,C   9,H  21)          107.5205         0.289785   
     62. A(C   8,C   9,H  21)          109.2378         0.331140   
     63. A(C   8,C   9,H  20)          108.8458         0.330827   
     64. A(C  13,C   9,H  21)          110.2788         0.327288   
     65. A(C  14,C  10,C  15)          115.6804         0.428849   
     66. A(C   7,C  10,C  15)          122.3184         0.411169   
     67. A(C   7,C  10,C  14)          121.9892         0.406026   
     68. A(S   0,C  11,N   2)          113.6713         0.463870   
     69. A(N   2,C  11,H  22)          122.0128         0.365484   
     70. A(S   0,C  11,H  22)          124.3072         0.369063   
     71. A(H  23,C  12,H  25)          108.6700         0.291349   
     72. A(H  24,C  12,H  25)          108.4073         0.291271   
     73. A(C   6,C  12,H  25)          109.9478         0.333251   
     74. A(H  23,C  12,H  24)          108.4166         0.290424   
     75. A(C   6,C  12,H  24)          110.6808         0.332134   
     76. A(C   6,C  12,H  23)          110.6542         0.332228   
     77. A(O   1,C  13,C   9)          107.7095         0.386720   
     78. A(H  26,C  13,H  27)          107.1915         0.288056   
     79. A(C   9,C  13,H  27)          110.3795         0.326117   
     80. A(O   1,C  13,H  27)          110.6910         0.338955   
     81. A(C   9,C  13,H  26)          109.0854         0.326095   
     82. A(O   1,C  13,H  26)          111.7903         0.338931   
     83. A(N   3,C  14,N   5)          117.7366         0.433652   
     84. A(N   5,C  14,C  10)          121.5952         0.422453   
     85. A(N   3,C  14,C  10)          120.4918         0.434656   
     86. A(C  10,C  15,H  28)          119.8508         0.352780   
     87. A(N   4,C  15,H  28)          116.9222         0.359202   
     88. A(N   4,C  15,C  10)          123.2261         0.442769   
     89. A(N   4,C  16,C  17)          118.1217         0.406633   
     90. A(N   3,C  16,C  17)          118.3694         0.409762   
     91. A(N   3,C  16,N   4)          123.5071         0.441837   
     92. A(H  33,C  17,H  34)          107.8769         0.290266   
     93. A(H  32,C  17,H  34)          110.7355         0.291086   
     94. A(C  16,C  17,H  34)          109.8080         0.330349   
     95. A(H  32,C  17,H  33)          109.2513         0.290627   
     96. A(C  16,C  17,H  33)          108.7965         0.329801   
     97. A(C  16,C  17,H  32)          110.3137         0.330782   
     98. D(C  12,C   6,N   2,C   7)      0.9564         0.023066   
     99. D(C  12,C   6,N   2,C  11)   -179.5218         0.023066   
    100. D(C   8,C   6,N   2,C  11)      0.0192         0.023066   
    101. D(C   8,C   6,N   2,C   7)   -179.5027         0.023066   
    102. D(H  19,C   7,N   2,C   6)    -54.2348         0.013477   
    103. D(C  10,C   7,N   2,C  11)      3.0132         0.013477   
    104. D(H  18,C   7,N   2,C  11)   -118.7018         0.013477   
    105. D(C  10,C   7,N   2,C   6)   -177.5201         0.013477   
    106. D(H  18,C   7,N   2,C   6)     60.7650         0.013477   
    107. D(C   9,C   8,C   6,N   2)   -177.3769         0.036336   
    108. D(S   0,C   8,C   6,N   2)      0.2226         0.036336   
    109. D(S   0,C   8,C   6,C  12)    179.7146         0.036336   
    110. D(C   9,C   8,C   6,C  12)      2.1151         0.036336   
    111. D(C   6,C   8,S   0,C  11)     -0.3078         0.004825   
    112. D(C   9,C   8,S   0,C  11)    177.4543         0.004825   
    113. D(H  21,C   9,C   8,S   0)    166.3184         0.013504   
    114. D(H  20,C   9,C   8,C   6)    100.8102         0.013504   
    115. D(H  20,C   9,C   8,S   0)    -76.5507         0.013504   
    116. D(C  13,C   9,C   8,C   6)   -139.1748         0.013504   
    117. D(C  13,C   9,C   8,S   0)     43.4643         0.013504   
    118. D(C  15,C  10,C   7,H  18)     10.3440         0.015392   
    119. D(C  15,C  10,C   7,N   2)   -108.9918         0.015392   
    120. D(C  14,C  10,C   7,H  19)    -49.3944         0.015392   
    121. D(C  14,C  10,C   7,H  18)   -170.9728         0.015392   
    122. D(C  14,C  10,C   7,N   2)     69.6914         0.015392   
    123. D(H  22,C  11,N   2,C   6)   -179.2374         0.047314   
    124. D(S   0,C  11,N   2,C   7)    179.2467         0.047314   
    125. D(S   0,C  11,N   2,C   6)     -0.2641         0.047314   
    126. D(N   2,C  11,S   0,C   8)      0.3286         0.006339   
    127. D(H  22,C  11,N   2,C   7)      0.2734         0.047314   
    128. D(H  22,C  11,S   0,C   8)    179.2747         0.006339   
    129. D(H  25,C  12,C   6,N   2)   -178.1042         0.013901   
    130. D(H  24,C  12,C   6,C   8)   -117.3032         0.013901   
    131. D(H  24,C  12,C   6,N   2)     62.1558         0.013901   
    132. D(H  23,C  12,C   6,C   8)    122.4865         0.013901   
    133. D(H  23,C  12,C   6,N   2)    -58.0545         0.013901   
    134. D(H  26,C  13,C   9,H  21)     56.6637         0.012591   
    135. D(H  26,C  13,C   9,H  20)    -60.7119         0.012591   
    136. D(H  26,C  13,C   9,C   8)    178.9322         0.012591   
    137. D(O   1,C  13,C   9,H  21)    178.1858         0.012591   
    138. D(O   1,C  13,C   9,H  20)     60.8102         0.012591   
    139. D(O   1,C  13,C   9,C   8)    -59.5457         0.012591   
    140. D(H  27,C  13,O   1,H  31)     68.9462         0.021565   
    141. D(H  26,C  13,O   1,H  31)    -50.4764         0.021565   
    142. D(C   9,C  13,O   1,H  31)   -170.2987         0.021565   
    143. D(N   5,C  14,C  10,C   7)     -2.3573         0.022991   
    144. D(N   3,C  14,C  10,C  15)      1.3433         0.022991   
    145. D(N   3,C  14,C  10,C   7)   -177.4219         0.022991   
    146. D(C  10,C  14,N   5,H  30)    171.7681         0.028226   
    147. D(C  10,C  14,N   5,H  29)     33.7420         0.028226   
    148. D(N   3,C  14,N   5,H  30)    -13.0365         0.028226   
    149. D(N   3,C  14,N   5,H  29)   -151.0627         0.028226   
    150. D(C  10,C  14,N   3,C  16)     -1.4937         0.036049   
    151. D(N   5,C  14,C  10,C  15)    176.4079         0.022991   
    152. D(N   5,C  14,N   3,C  16)   -176.7446         0.036049   
    153. D(H  28,C  15,C  10,C  14)    179.8008         0.026706   
    154. D(H  28,C  15,C  10,C   7)     -1.4385         0.026706   
    155. D(N   4,C  15,C  10,C  14)     -0.5746         0.026706   
    156. D(N   4,C  15,C  10,C   7)    178.1861         0.026706   
    157. D(H  28,C  15,N   4,C  16)    179.5913         0.038621   
    158. D(C  10,C  15,N   4,C  16)     -0.0436         0.038621   
    159. D(C  17,C  16,N   3,C  14)   -178.6489         0.035587   
    160. D(N   4,C  16,N   3,C  14)      0.8491         0.035587   
    161. D(C  17,C  16,N   4,C  15)    179.4344         0.032382   
    162. D(N   3,C  16,N   4,C  15)     -0.0648         0.032382   
    163. D(H  34,C  17,C  16,N   3)   -137.0427         0.012941   
    164. D(H  33,C  17,C  16,N   4)    -74.4241         0.012941   
    165. D(H  33,C  17,C  16,N   3)    105.1014         0.012941   
    166. D(H  32,C  17,C  16,N   4)    165.7491         0.012941   
    167. D(H  32,C  17,C  16,N   3)    -14.7254         0.012941   
    -----------------------------------------------------------------

Number of atoms                         .... 35
Number of degrees of freedom            .... 167


         *************************************************************
         *                GEOMETRY OPTIMIZATION CYCLE   1            *
         *************************************************************
---------------------------------
CARTESIAN COORDINATES (ANGSTROEM)
---------------------------------
  S      2.261170    0.578220    0.789559
  O      3.944032    1.500127    2.703028
  N     -0.199281    0.095515    0.574294
  N     -0.812842   -1.535408   -3.404623
  N     -1.962098    0.510311   -3.644890
  N     -0.255392   -2.427326   -1.341016
  C      0.018449    0.230545    1.951101
  C     -1.539756   -0.183874    0.004058
  C      1.313464    0.493238    2.240021
  C      1.930900    0.646209    3.591025
  C     -1.493644   -0.338287   -1.462302
  C      0.890402    0.250914   -0.136162
  C     -1.121925    0.070647    2.895453
  C      2.934044    1.776913    3.645982
  C     -0.882547   -1.451117   -2.077856
  C     -2.024290    0.613577   -2.327676
  C     -1.351631   -0.574078   -4.154356
  C     -1.284470   -0.711861   -5.645723
  H     -2.185063    0.648043    0.289033
  H     -1.896286   -1.080679    0.515017
  H      2.446976   -0.282661    3.850913
  H      1.142959    0.802822    4.331223
  H      0.884690    0.188679   -1.210443
  H     -1.914299    0.784766    2.666388
  H     -1.536777   -0.936901    2.831768
  H     -0.785769    0.239319    3.914206
  H      3.336867    1.850437    4.665209
  H      2.444442    2.733861    3.420616
  H     -2.515539    1.500408   -1.924302
  H     -0.635979   -2.648364   -0.435726
  H      0.023854   -3.229586   -1.887018
  H      4.681113    2.112925    2.807248
  H     -0.563488   -1.478615   -5.922182
  H     -2.272378   -0.995043   -6.018104
  H     -1.019909    0.246325   -6.093764

----------------------------
CARTESIAN COORDINATES (A.U.)
----------------------------
  NO LB      ZA    FRAG     MASS         X           Y           Z
   0 S    16.0000    0    32.060    4.272992    1.092678    1.492050
   1 O     8.0000    0    15.999    7.453140    2.834828    5.107982
   2 N     7.0000    0    14.007   -0.376587    0.180498    1.085258
   3 N     7.0000    0    14.007   -1.536049   -2.901500   -6.433804
   4 N     7.0000    0    14.007   -3.707827    0.964348   -6.887843
   5 N     7.0000    0    14.007   -0.482621   -4.586982   -2.534152
   6 C     6.0000    0    12.011    0.034864    0.435666    3.687046
   7 C     6.0000    0    12.011   -2.909717   -0.347471    0.007669
   8 C     6.0000    0    12.011    2.482087    0.932085    4.233026
   9 C     6.0000    0    12.011    3.648873    1.221158    6.786055
  10 C     6.0000    0    12.011   -2.822577   -0.639270   -2.763350
  11 C     6.0000    0    12.011    1.682616    0.474159   -0.257309
  12 C     6.0000    0    12.011   -2.120131    0.133503    5.471614
  13 C     6.0000    0    12.011    5.544539    3.357878    6.889908
  14 C     6.0000    0    12.011   -1.667771   -2.742214   -3.926579
  15 C     6.0000    0    12.011   -3.825355    1.159492   -4.398671
  16 C     6.0000    0    12.011   -2.554212   -1.084850   -7.850596
  17 C     6.0000    0    12.011   -2.427296   -1.345222  -10.668871
  18 H     1.0000    0     1.008   -4.129170    1.224624    0.546193
  19 H     1.0000    0     1.008   -3.583461   -2.042188    0.973241
  20 H     1.0000    0     1.008    4.624114   -0.534152    7.277171
  21 H     1.0000    0     1.008    2.159879    1.517113    8.184825
  22 H     1.0000    0     1.008    1.671822    0.356552   -2.287405
  23 H     1.0000    0     1.008   -3.617502    1.482992    5.038744
  24 H     1.0000    0     1.008   -2.904087   -1.770485    5.351266
  25 H     1.0000    0     1.008   -1.484888    0.452247    7.396778
  26 H     1.0000    0     1.008    6.305764    3.496819    8.815967
  27 H     1.0000    0     1.008    4.619326    5.166248    6.464028
  28 H     1.0000    0     1.008   -4.753680    2.835360   -3.636404
  29 H     1.0000    0     1.008   -1.201827   -5.004683   -0.823403
  30 H     1.0000    0     1.008    0.045078   -6.103034   -3.565947
  31 H     1.0000    0     1.008    8.846022    3.992850    5.304930
  32 H     1.0000    0     1.008   -1.064838   -2.794177  -11.191302
  33 H     1.0000    0     1.008   -4.294171   -1.880358  -11.372568
  34 H     1.0000    0     1.008   -1.927349    0.465487  -11.515544

--------------------------------
INTERNAL COORDINATES (ANGSTROEM)
--------------------------------
 S      0   0   0     0.000000000000     0.00000000     0.00000000
 O      1   0   0     2.709852154873     0.00000000     0.00000000
 N      1   2   0     2.516577698289   137.12340015     0.00000000
 N      3   1   2     4.343747225262   106.76659120   182.52254070
 N      4   3   1     2.358703224654    80.58926106   247.20989339
 N      4   3   1     2.316191318844    45.12765010    87.11696152
 C      3   1   2     1.400442079163    75.25043235   345.47862251
 C      3   1   2     1.483273182944   162.28581594   163.68771541
 C      7   3   1     1.352606999938   112.18362364   359.85159348
 C      9   7   3     1.493265139890   127.51891133   182.62306582
 C      8   3   1     1.475189026965   111.93843426     4.53247177
 C      3   1   2     1.310078358179    37.85342964   165.72979078
 C      7   3   1     1.489235467766   119.60463369   180.31067684
 C      2   1   3     1.409201520139    95.40663364   355.04439137
 C      4   3   1     1.331267266299    21.67557027   128.85731363
 C      5   4   3     1.322717860170    89.38011310   341.70843513
 C      4   3   1     1.332872725588   107.55051090   256.18456515
 C     17   4   3     1.499223346053   118.36937537   161.61152721
 H      8   3   1     1.090741230843   106.89145159   242.81754886
 H      8   3   1     1.091994779850   105.65632760   127.81778599
 H     10   9   7     1.093926342438   108.84575346   100.81024475
 H     10   9   7     1.092370016741   109.23783073   343.67931136
 H     12   3   1     1.076097035055   122.01284845   181.02664698
 H     13   7   3     1.091005843401   110.65424248   301.94552330
 H     13   7   3     1.091471140251   110.68082774    62.15577559
 H     13   7   3     1.085960000124   109.94779591   181.89577670
 H     14   2   1     1.098405667532   111.79030423   160.38227602
 H     14   2   1     1.098293577402   110.69100677   279.80486415
 H     16   5   4     1.091102646131   116.92218223   179.56073983
 H      6   4   3     1.006605070419   142.63975999    72.79833077
 H      6   4   3     1.009811060069    83.72812699   195.91397178
 H      2   1   3     0.964195618592   140.11028871   223.54775123
 H     18  17   4     1.088189320093   110.31365662   345.27459560
 H     18  17   4     1.093078959128   108.79651445   105.10135464
 H     18  17   4     1.090344745167   109.80797762   222.95727058

---------------------------
INTERNAL COORDINATES (A.U.)
---------------------------
 S      0   0   0     0.000000000000     0.00000000     0.00000000
 O      1   0   0     5.120878436126     0.00000000     0.00000000
 N      1   2   0     4.755642644500   137.12340015     0.00000000
 N      3   1   2     8.208492650725   106.76659120   182.52254070
 N      4   3   1     4.457303125793    80.58926106   247.20989339
 N      4   3   1     4.376967266380    45.12765010    87.11696152
 C      3   1   2     2.646451996038    75.25043235   345.47862251
 C      3   1   2     2.802980097553   162.28581594   163.68771541
 C      7   3   1     2.556056796708   112.18362364   359.85159348
 C      9   7   3     2.821862159724   127.51891133   182.62306582
 C      8   3   1     2.787703256730   111.93843426     4.53247177
 C      3   1   2     2.475689310936    37.85342964   165.72979078
 C      7   3   1     2.814247182999   119.60463369   180.31067684
 C      2   1   3     2.663004940569    95.40663364   355.04439137
 C      4   3   1     2.515730544360    21.67557027   128.85731363
 C      5   4   3     2.499574508168    89.38011310   341.70843513
 C      4   3   1     2.518764422734   107.55051090   256.18456515
 C     17   4   3     2.833121537621   118.36937537   161.61152721
 H      8   3   1     2.061202209270   106.89145159   242.81754886
 H      8   3   1     2.063571073587   105.65632760   127.81778599
 H     10   9   7     2.067221197890   108.84575346   100.81024475
 H     10   9   7     2.064280168548   109.23783073   343.67931136
 H     12   3   1     2.033528689779   122.01284845   181.02664698
 H     13   7   3     2.061702254537   110.65424248   301.94552330
 H     13   7   3     2.062581538154   110.68082774    62.15577559
 H     13   7   3     2.052166992628   109.94779591   181.89577670
 H     14   2   1     2.075685895583   111.79030423   160.38227602
 H     14   2   1     2.075474075935   110.69100677   279.80486415
 H     16   5   4     2.061885185184   116.92218223   179.56073983
 H      6   4   3     1.902207908108   142.63975999    72.79833077
 H      6   4   3     1.908266350535    83.72812699   195.91397178
 H      2   1   3     1.822065658665   140.11028871   223.54775123
 H     18  17   4     2.056379796833   110.31365662   345.27459560
 H     18  17   4     2.065619875504   108.79651445   105.10135464
 H     18  17   4     2.060452959926   109.80797762   222.95727058

---------------------
BASIS SET INFORMATION
---------------------
There are 5 groups of distinct atoms

 Group   1 Type S   : 14s9p1d contracted to 5s4p1d pattern {73211/6111/1}
 Group   2 Type O   : 11s6p2d contracted to 5s3p2d pattern {62111/411/11}
 Group   3 Type N   : 11s6p1d contracted to 5s3p1d pattern {62111/411/1}
 Group   4 Type C   : 11s6p1d contracted to 5s3p1d pattern {62111/411/1}
 Group   5 Type H   : 5s contracted to 3s pattern {311}

Atom   0S    basis set group =>   1
Atom   1O    basis set group =>   2
Atom   2N    basis set group =>   3
Atom   3N    basis set group =>   3
Atom   4N    basis set group =>   3
Atom   5N    basis set group =>   3
Atom   6C    basis set group =>   4
Atom   7C    basis set group =>   4
Atom   8C    basis set group =>   4
Atom   9C    basis set group =>   4
Atom  10C    basis set group =>   4
Atom  11C    basis set group =>   4
Atom  12C    basis set group =>   4
Atom  13C    basis set group =>   4
Atom  14C    basis set group =>   4
Atom  15C    basis set group =>   4
Atom  16C    basis set group =>   4
Atom  17C    basis set group =>   4
Atom  18H    basis set group =>   5
Atom  19H    basis set group =>   5
Atom  20H    basis set group =>   5
Atom  21H    basis set group =>   5
Atom  22H    basis set group =>   5
Atom  23H    basis set group =>   5
Atom  24H    basis set group =>   5
Atom  25H    basis set group =>   5
Atom  26H    basis set group =>   5
Atom  27H    basis set group =>   5
Atom  28H    basis set group =>   5
Atom  29H    basis set group =>   5
Atom  30H    basis set group =>   5
Atom  31H    basis set group =>   5
Atom  32H    basis set group =>   5
Atom  33H    basis set group =>   5
Atom  34H    basis set group =>   5
---------------------------------
AUXILIARY/J BASIS SET INFORMATION
---------------------------------
There are 5 groups of distinct atoms

 Group   1 Type S   : 14s5p5d2f1g contracted to 8s4p3d1f1g pattern {71111111/2111/311/2/1}
 Group   2 Type O   : 8s3p3d contracted to 6s3p3d pattern {311111/111/111}
 Group   3 Type N   : 8s3p3d contracted to 6s3p3d pattern {311111/111/111}
 Group   4 Type C   : 8s3p3d contracted to 6s3p3d pattern {311111/111/111}
 Group   5 Type H   : 5s2p contracted to 3s1p pattern {311/2}

Atom   0S    basis set group =>   1
Atom   1O    basis set group =>   2
Atom   2N    basis set group =>   3
Atom   3N    basis set group =>   3
Atom   4N    basis set group =>   3
Atom   5N    basis set group =>   3
Atom   6C    basis set group =>   4
Atom   7C    basis set group =>   4
Atom   8C    basis set group =>   4
Atom   9C    basis set group =>   4
Atom  10C    basis set group =>   4
Atom  11C    basis set group =>   4
Atom  12C    basis set group =>   4
Atom  13C    basis set group =>   4
Atom  14C    basis set group =>   4
Atom  15C    basis set group =>   4
Atom  16C    basis set group =>   4
Atom  17C    basis set group =>   4
Atom  18H    basis set group =>   5
Atom  19H    basis set group =>   5
Atom  20H    basis set group =>   5
Atom  21H    basis set group =>   5
Atom  22H    basis set group =>   5
Atom  23H    basis set group =>   5
Atom  24H    basis set group =>   5
Atom  25H    basis set group =>   5
Atom  26H    basis set group =>   5
Atom  27H    basis set group =>   5
Atom  28H    basis set group =>   5
Atom  29H    basis set group =>   5
Atom  30H    basis set group =>   5
Atom  31H    basis set group =>   5
Atom  32H    basis set group =>   5
Atom  33H    basis set group =>   5
Atom  34H    basis set group =>   5


           ************************************************************
           *        Program running with 16 parallel MPI-processes    *
           *              working on a common directory               *
           ************************************************************
------------------------------------------------------------------------------
                             ORCA STARTUP CALCULATIONS
                           -- RI-GTO INTEGRALS CHOSEN --
------------------------------------------------------------------------------
------------------------------------------------------------------------------
                   ___                                                        
                  /   \      - P O W E R E D   B Y -                         
                 /     \                                                     
                 |  |  |   _    _      __       _____    __    __             
                 |  |  |  | |  | |    /  \     |  _  \  |  |  /  |          
                  \  \/   | |  | |   /    \    | | | |  |  | /  /          
                 / \  \   | |__| |  /  /\  \   | |_| |  |  |/  /          
                |  |  |   |  __  | /  /__\  \  |    /   |      \           
                |  |  |   | |  | | |   __   |  |    \   |  |\   \          
                \     /   | |  | | |  |  |  |  | |\  \  |  | \   \       
                 \___/    |_|  |_| |__|  |__|  |_| \__\ |__|  \__/        
                                                                              
                      - O R C A' S   B I G   F R I E N D -                    
                                      &                                       
                       - I N T E G R A L  F E E D E R -                       
                                                                              
 v1 FN, 2020, v2 2021, v3 2022-2024                                           
------------------------------------------------------------------------------


----------------------
SHARK INTEGRAL PACKAGE
----------------------

Number of atoms                             ...     35
Number of basis functions                   ...    401
Number of shells                            ...    215
Maximum angular momentum                    ...      2
Integral batch strategy                     ... SHARK/LIBINT Hybrid
RI-J (if used) integral strategy            ... SPLIT-RIJ (Revised 2003 algorithm where possible)
Printlevel                                  ...      1
Contraction scheme used                     ... SEGMENTED contraction
Prescreening option                         ... SCHWARTZ
   Thresh                                   ... 2.500e-11
   Tcut                                     ... 2.500e-12
   Tpresel                                  ... 2.500e-12 
Coulomb Range Separation                    ... NOT USED
Exchange Range Separation                   ... NOT USED
Multipole approximations                    ... NOT USED
Finite Nucleus Model                        ... NOT USED
CABS basis                                  ... NOT available
Auxiliary Coulomb fitting basis             ... AVAILABLE
   # of basis functions in Aux-J            ...    663
   # of shells in Aux-J                     ...    289
   Maximum angular momentum in Aux-J        ...      4
Auxiliary J/K fitting basis                 ... NOT available
Auxiliary Correlation fitting basis         ... NOT available
Auxiliary 'external' fitting basis          ... NOT available

Checking pre-screening integrals            ... done (  0.0 sec) Dimension = 215
Check shell pair data                       ... done (  0.0 sec)
Shell pair information
Shell pair cut-off parameter TPreSel        ...   2.5e-12
Total number of shell pairs                 ...     23220
Shell pairs after pre-screening             ...     17005
Total number of primitive shell pairs       ...     87201
Primitive shell pairs kept                  ...     40791
          la=0 lb=0:   6839 shell pairs
          la=1 lb=0:   6085 shell pairs
          la=1 lb=1:   1333 shell pairs
          la=2 lb=0:   1798 shell pairs
          la=2 lb=1:    818 shell pairs
          la=2 lb=2:    132 shell pairs

Calculating one electron integrals          ... done (  0.0 sec)
Calculating RI/J V-Matrix + Cholesky decomp.... done (  0.0 sec)
Calculating Nuclear repulsion               ... done (  0.0 sec) ENN=   1457.898300792354 Eh

Diagonalization of the overlap matrix:
Smallest eigenvalue                        ... 5.316e-05
Time for diagonalization                   ...    0.013 sec
Threshold for overlap eigenvalues          ... 1.000e-07
Number of eigenvalues below threshold      ... 0
Time for construction of square roots      ...    0.007 sec
Total time needed                          ...    0.021 sec

-------------------
DFT GRID GENERATION
-------------------

General Integration Accuracy     IntAcc      ... 4.959
Radial Grid Type                 RadialGrid  ... OptM3 with GC (2021)
Angular Grid (max. ang.)         AngularGrid ... 6 (Lebedev-590)
Angular grid pruning method      GridPruning ... 4 (adaptive)
Weight generation scheme         WeightScheme... mBecke (2022)
Basis function cutoff            BFCut       ... 1.0000e-11
Integration weight cutoff        WCut        ... 1.0000e-14
Partially contracted basis set               ... off
Rotationally invariant grid construction     ... off
Angular grids for H and He will be reduced by one unit
Diffuse basis detected: some atoms will have their outermost
                        angular grid increased by 1.

Total number of grid points                  ...   403429
Total number of batches                      ...     6321
Average number of points per batch           ...       63
Average number of grid points per atom       ...    11527
Initializing property integral containers    ... done (  0.0 sec)

SHARK setup successfully completed in   3.1 seconds

Maximum memory used throughout the entire STARTUP-calculation: 92.8 MB


           ************************************************************
           *        Program running with 16 parallel MPI-processes    *
           *              working on a common directory               *
           ************************************************************
-------------------------------------------------------------------------------
                                 ORCA GUESS
                   Start orbitals & Density for SCF / CASSCF
-------------------------------------------------------------------------------

------------
SCF SETTINGS
------------
Hamiltonian:
 Density Functional     Method          .... DFT(GTOs)
 Exchange Functional    Exchange        .... B973C
 Correlation Functional Correlation     .... B973C
 Gradients option       PostSCFGGA      .... off
 RI-approximation to the Coulomb term is turned on
   Number of AuxJ basis functions       .... 663


General Settings:
 Integral files         IntName         .... m1_01_Vitamin_B1-QM3_07-B97-3C-TZ
 Hartree-Fock type      HFTyp           .... RHF
 Total Charge           Charge          ....    1
 Multiplicity           Mult            ....    1
 Number of Electrons    NEL             ....  140
 Basis Dimension        Dim             ....  401
 Nuclear Repulsion      ENuc            ....   1457.8983007924 Eh

Convergence Acceleration:
 AO-DIIS                CNVDIIS         .... on
   Start iteration      DIISMaxIt       ....    12
   Startup error        DIISStart       ....  0.200000
   # of expansion vecs  DIISMaxEq       ....     5
   Bias factor          DIISBfac        ....   1.050
   Max. coefficient     DIISMaxC        ....  10.000
 MO-DIIS                CNVKDIIS        .... off
 Trust-Rad. Augm. Hess. CNVTRAH         .... off
 SOSCF                  CNVSOSCF        .... on
   Start iteration      SOSCFMaxIt      ....   150
   Startup grad/error   SOSCFStart      ....  0.003300
   Hessian update       SOSCFHessUp     .... L-BFGS
 Level Shifting         CNVShift        .... on
   Level shift para.    LevelShift      ....    0.2500
   Turn off err/grad.   ShiftErr        ....    0.0010
 Zerner damping         CNVZerner       .... off
 Static damping         CNVDamp         .... on
   Fraction old density DampFac         ....    0.7000
   Max. Damping (<1)    DampMax         ....    0.9800
   Min. Damping (>=0)   DampMin         ....    0.0000
   Turn off err/grad.   DampErr         ....    0.1000

SCF Procedure:
 Maximum # iterations   MaxIter         ....   800
 SCF integral mode      SCFMode         .... Direct
   Integral package                     .... SHARK and LIBINT hybrid scheme
 Reset frequency        DirectResetFreq ....    20
 Integral Threshold     Thresh          ....  2.500e-11 Eh
 Primitive CutOff       TCut            ....  2.500e-12 Eh

Convergence Tolerance:
 Convergence Check Mode ConvCheckMode   .... Total+1el-Energy
 Convergence forced     ConvForced      .... 0
 Energy Change          TolE            ....  1.000e-08 Eh
 1-El. energy change                    ....  1.000e-05 Eh
 Orbital Gradient       TolG            ....  1.000e-05
 Orbital Rotation angle TolX            ....  1.000e-05
 DIIS Error             TolErr          ....  5.000e-07

--------------------------------
INITIAL GUESS: MINIMAL BASIS EHT
--------------------------------
The minimal basis has 111 functions
EHT matrix was diagonalized
Basis set overlap was calculated now projecting the orbitals
Using GuessMode=FMatrix for the initial guess
C*T matrix was formed
Effective Fockian was calculated
Effective Fockian was diagonalized
Initial density was built
                      ------------------
                      INITIAL GUESS DONE
                      ------------------
             **** ENERGY FILE WAS UPDATED (m1_01_Vitamin_B1-QM3_07-B97-3C-TZ.en.tmp) ****
Finished Guess after   0.2 sec
Maximum memory used throughout the entire GUESS-calculation: 31.5 MB


           ************************************************************
           *        Program running with 16 parallel MPI-processes    *
           *              working on a common directory               *
           ************************************************************

-------------------------------------------------------------------------------------------
                                      ORCA LEAN-SCF
                              memory conserving SCF solver
-------------------------------------------------------------------------------------------

----------------------------------------D-I-I-S--------------------------------------------
Iteration    Energy (Eh)           Delta-E    RMSDP     MaxDP     DIISErr   Damp  Time(sec)
-------------------------------------------------------------------------------------------
               ***  Starting incremental Fock matrix formation  ***
    1    -1156.3918572801558184     0.00e+00  4.77e-03  1.93e-01  8.23e-01  0.700   0.5
Warning: op=0 Small HOMO/LUMO gap (  -0.039) - skipping pre-diagonalization
         Will do a full diagonalization
    2    -1157.3456345114800570    -9.54e-01  4.71e-03  2.50e-01  5.61e-01  0.700   0.5
    3    -1157.8870117165724878    -5.41e-01  2.57e-03  1.07e-01  3.80e-01  0.700   0.5
    4    -1158.2504120410826545    -3.63e-01  1.65e-03  6.02e-02  2.57e-01  0.700   0.5
                               ***Turning on AO-DIIS***
    5    -1158.5090622349571277    -2.59e-01  1.32e-03  5.17e-02  1.73e-01  0.700   0.5
    6    -1158.6895538460485113    -1.80e-01  9.38e-04  4.31e-02  1.21e-01  0.700   0.5
    7    -1158.8160723021123886    -1.27e-01  6.22e-04  3.17e-02  8.49e-02  0.700   0.5
    8    -1158.9049468693901872    -8.89e-02  1.43e-03  7.22e-02  5.99e-02  0.000   0.5
    9    -1159.1120390169812708    -2.07e-01  1.93e-04  1.09e-02  7.99e-03  0.000   0.5
   10    -1159.1123096426699703    -2.71e-04  5.64e-05  1.84e-03  5.25e-03  0.000   0.5
                              *** Initializing SOSCF ***
---------------------------------------S-O-S-C-F--------------------------------------
Iteration    Energy (Eh)           Delta-E    RMSDP     MaxDP     MaxGrad    Time(sec)
--------------------------------------------------------------------------------------
   11    -1159.1124224192199108    -1.13e-04  2.73e-05  1.71e-03  9.34e-04     0.5
               *** Restarting incremental Fock matrix formation ***
   12    -1159.1124353214140683    -1.29e-05  4.70e-05  2.17e-03  4.30e-04     0.5
   13    -1159.1124363025037383    -9.81e-07  2.97e-05  1.93e-03  3.10e-04     0.5
   14    -1159.1124397795356344    -3.48e-06  1.88e-05  8.54e-04  1.38e-04     0.4
   15    -1159.1124401678684990    -3.88e-07  8.57e-06  4.41e-04  1.29e-04     0.4
   16    -1159.1124404188662993    -2.51e-07  8.37e-06  2.25e-04  8.44e-05     0.5
   17    -1159.1124405694986308    -1.51e-07  5.38e-06  3.61e-04  3.28e-05     0.4
   18    -1159.1124405427649435     2.67e-08  4.08e-06  1.72e-04  4.03e-05     0.4
   19    -1159.1124406204644401    -7.77e-08  2.73e-06  1.16e-04  1.29e-05     0.4
   20    -1159.1124406276553600    -7.19e-09  2.57e-06  2.18e-04  1.14e-05     0.4
                 **** Energy Check signals convergence ****

               *****************************************************
               *                     SUCCESS                       *
               *           SCF CONVERGED AFTER  20 CYCLES          *
               *****************************************************

             **** ENERGY FILE WAS UPDATED (m1_01_Vitamin_B1-QM3_07-B97-3C-TZ.en.tmp) ****

----------------
TOTAL SCF ENERGY
----------------

Total Energy       :      -1159.11244062765536 Eh          -31541.05303 eV

Components:
Nuclear Repulsion  :       1457.89830079235435 Eh           39671.42962 eV
Electronic Energy  :      -2617.01074142000971 Eh          -71212.48265 eV
One Electron Energy:      -4460.66734559529414 Eh         -121380.92936 eV
Two Electron Energy:       1843.65660417528443 Eh           50168.44671 eV

Virial components:
Potential Energy   :      -2314.72803056622433 Eh          -62986.95191 eV
Kinetic Energy     :       1155.61558993856875 Eh           31445.89888 eV
Virial Ratio       :          2.00302596358126

DFT components:
N(Alpha)           :       69.999995716559 electrons
N(Beta)            :       69.999995716559 electrons
N(Total)           :      139.999991433118 electrons
E(XC)              :     -132.606837319587 Eh       

---------------
SCF CONVERGENCE
---------------

  Last Energy change         ...    7.1909e-09  Tolerance :   1.0000e-08
  Last MAX-Density change    ...    2.1785e-04  Tolerance :   1.0000e-07
  Last RMS-Density change    ...    2.5674e-06  Tolerance :   5.0000e-09
  Last DIIS Error            ...    9.3411e-04  Tolerance :   5.0000e-07
  Last Orbital Gradient      ...    1.1412e-05  Tolerance :   1.0000e-05
  Last Orbital Rotation      ...    6.2513e-05  Tolerance :   1.0000e-05


----------------
ORBITAL ENERGIES
----------------

  NO   OCC          E(Eh)            E(eV) 
   0   2.0000     -88.231147     -2400.8916 
   1   2.0000     -18.878057      -513.6980 
   2   2.0000     -14.234434      -387.3386 
   3   2.0000     -14.134105      -384.6086 
   4   2.0000     -14.092583      -383.4787 
   5   2.0000     -14.085220      -383.2783 
   6   2.0000     -10.126414      -275.5537 
   7   2.0000     -10.101428      -274.8738 
   8   2.0000     -10.101271      -274.8696 
   9   2.0000     -10.096063      -274.7279 
  10   2.0000     -10.090461      -274.5754 
  11   2.0000     -10.071922      -274.0709 
  12   2.0000     -10.069241      -273.9980 
  13   2.0000     -10.054622      -273.6002 
  14   2.0000     -10.046909      -273.3903 
  15   2.0000     -10.045568      -273.3538 
  16   2.0000     -10.033990      -273.0387 
  17   2.0000      -9.975195      -271.4389 
  18   2.0000      -7.920818      -215.5364 
  19   2.0000      -5.951287      -161.9428 
  20   2.0000      -5.945289      -161.7795 
  21   2.0000      -5.943211      -161.7230 
  22   2.0000      -1.108539       -30.1649 
  23   2.0000      -1.078692       -29.3527 
  24   2.0000      -1.032932       -28.1075 
  25   2.0000      -0.979182       -26.6449 
  26   2.0000      -0.945934       -25.7402 
  27   2.0000      -0.911370       -24.7996 
  28   2.0000      -0.894793       -24.3485 
  29   2.0000      -0.873398       -23.7664 
  30   2.0000      -0.837248       -22.7827 
  31   2.0000      -0.808395       -21.9975 
  32   2.0000      -0.787133       -21.4190 
  33   2.0000      -0.758966       -20.6525 
  34   2.0000      -0.731808       -19.9135 
  35   2.0000      -0.713023       -19.4023 
  36   2.0000      -0.690760       -18.7965 
  37   2.0000      -0.672849       -18.3092 
  38   2.0000      -0.665957       -18.1216 
  39   2.0000      -0.638739       -17.3810 
  40   2.0000      -0.627049       -17.0629 
  41   2.0000      -0.610912       -16.6238 
  42   2.0000      -0.600496       -16.3403 
  43   2.0000      -0.588601       -16.0167 
  44   2.0000      -0.572885       -15.5890 
  45   2.0000      -0.562185       -15.2978 
  46   2.0000      -0.559277       -15.2187 
  47   2.0000      -0.544102       -14.8058 
  48   2.0000      -0.531845       -14.4722 
  49   2.0000      -0.525011       -14.2863 
  50   2.0000      -0.519283       -14.1304 
  51   2.0000      -0.514745       -14.0069 
  52   2.0000      -0.507707       -13.8154 
  53   2.0000      -0.502116       -13.6633 
  54   2.0000      -0.496478       -13.5098 
  55   2.0000      -0.491916       -13.3857 
  56   2.0000      -0.476617       -12.9694 
  57   2.0000      -0.474006       -12.8984 
  58   2.0000      -0.462753       -12.5922 
  59   2.0000      -0.456819       -12.4307 
  60   2.0000      -0.437365       -11.9013 
  61   2.0000      -0.429585       -11.6896 
  62   2.0000      -0.422794       -11.5048 
  63   2.0000      -0.415678       -11.3112 
  64   2.0000      -0.376575       -10.2471 
  65   2.0000      -0.371448       -10.1076 
  66   2.0000      -0.363730        -9.8976 
  67   2.0000      -0.359883        -9.7929 
  68   2.0000      -0.334753        -9.1091 
  69   2.0000      -0.312530        -8.5044 
  70   0.0000      -0.223124        -6.0715 
  71   0.0000      -0.174085        -4.7371 
  72   0.0000      -0.166377        -4.5274 
  73   0.0000      -0.163164        -4.4399 
  74   0.0000      -0.149968        -4.0808 
  75   0.0000      -0.127728        -3.4757 
  76   0.0000      -0.102547        -2.7904 
  77   0.0000      -0.088292        -2.4026 
  78   0.0000      -0.077152        -2.0994 
  79   0.0000      -0.073292        -1.9944 
  80   0.0000      -0.068071        -1.8523 
*Only the first 10 virtual orbitals were printed.

                    ********************************
                    * MULLIKEN POPULATION ANALYSIS *
                    ********************************

-----------------------
MULLIKEN ATOMIC CHARGES
-----------------------
   0 S :    0.307588
   1 O :   -0.576374
   2 N :    0.073174
   3 N :   -0.140417
   4 N :   -0.084265
   5 N :   -0.585042
   6 C :   -0.051333
   7 C :   -0.692503
   8 C :   -0.042623
   9 C :   -0.253130
  10 C :    0.123452
  11 C :   -0.103009
  12 C :   -0.479095
  13 C :   -0.187627
  14 C :    0.126220
  15 C :   -0.116307
  16 C :    0.104604
  17 C :   -0.547439
  18 H :    0.248169
  19 H :    0.258334
  20 H :    0.219457
  21 H :    0.194721
  22 H :    0.284267
  23 H :    0.202297
  24 H :    0.205197
  25 H :    0.200436
  26 H :    0.195572
  27 H :    0.176687
  28 H :    0.177131
  29 H :    0.342509
  30 H :    0.366216
  31 H :    0.453893
  32 H :    0.198459
  33 H :    0.204019
  34 H :    0.196763
Sum of atomic charges:    1.0000000

--------------------------------
MULLIKEN REDUCED ORBITAL CHARGES
--------------------------------
  0 S s       :     5.886381  s :     5.886381
      pz      :     2.948587  p :     9.679586
      px      :     3.239488
      py      :     3.491511
      dz2     :     0.017918  d :     0.126445
      dxz     :     0.052439
      dyz     :     0.021680
      dx2y2   :     0.017978
      dxy     :     0.016430

  1 O s       :     3.813370  s :     3.813370
      pz      :     1.639266  p :     4.733538
      px      :     1.389384
      py      :     1.704888
      dz2     :     0.000430  d :     0.029467
      dxz     :     0.006396
      dyz     :     0.003049
      dx2y2   :     0.003603
      dxy     :     0.015988

  2 N s       :     3.265979  s :     3.265979
      pz      :     1.101345  p :     3.603373
      px      :     1.093395
      py      :     1.408632
      dz2     :     0.014511  d :     0.057475
      dxz     :     0.017003
      dyz     :     0.009490
      dx2y2   :     0.007655
      dxy     :     0.008816

  3 N s       :     3.468871  s :     3.468871
      pz      :     1.054488  p :     3.627346
      px      :     1.236546
      py      :     1.336312
      dz2     :     0.013866  d :     0.044200
      dxz     :     0.007150
      dyz     :     0.010302
      dx2y2   :     0.006406
      dxy     :     0.006475

  4 N s       :     3.494486  s :     3.494486
      pz      :     1.130641  p :     3.544668
      px      :     1.177420
      py      :     1.236606
      dz2     :     0.015488  d :     0.045112
      dxz     :     0.007080
      dyz     :     0.008681
      dx2y2   :     0.006359
      dxy     :     0.007502

  5 N s       :     3.448336  s :     3.448336
      pz      :     1.236762  p :     4.102564
      px      :     1.581848
      py      :     1.283954
      dz2     :     0.005914  d :     0.034143
      dxz     :     0.007733
      dyz     :     0.010050
      dx2y2   :     0.005634
      dxy     :     0.004812

  6 C s       :     3.147964  s :     3.147964
      pz      :     0.890229  p :     2.844468
      px      :     0.975790
      py      :     0.978448
      dz2     :     0.019337  d :     0.058902
      dxz     :     0.014627
      dyz     :     0.008416
      dx2y2   :     0.007767
      dxy     :     0.008754

  7 C s       :     3.441781  s :     3.441781
      pz      :     1.074299  p :     3.194996
      px      :     0.840803
      py      :     1.279894
      dz2     :     0.011063  d :     0.055726
      dxz     :     0.013053
      dyz     :     0.010323
      dx2y2   :     0.009390
      dxy     :     0.011897

  8 C s       :     3.144927  s :     3.144927
      pz      :     0.788779  p :     2.851391
      px      :     0.988811
      py      :     1.073800
      dz2     :     0.010952  d :     0.046305
      dxz     :     0.015180
      dyz     :     0.006560
      dx2y2   :     0.005919
      dxy     :     0.007693

  9 C s       :     3.140184  s :     3.140184
      pz      :     0.911539  p :     3.068187
      px      :     1.110647
      py      :     1.046001
      dz2     :     0.009602  d :     0.044759
      dxz     :     0.012396
      dyz     :     0.005431
      dx2y2   :     0.006807
      dxy     :     0.010523

 10 C s       :     3.045582  s :     3.045582
      pz      :     0.740434  p :     2.785538
      px      :     1.124237
      py      :     0.920867
      dz2     :     0.013485  d :     0.045428
      dxz     :     0.006694
      dyz     :     0.013907
      dx2y2   :     0.005271
      dxy     :     0.006072

 11 C s       :     3.185046  s :     3.185046
      pz      :     1.051584  p :     2.864636
      px      :     0.844477
      py      :     0.968575
      dz2     :     0.014002  d :     0.053326
      dxz     :     0.015905
      dyz     :     0.004531
      dx2y2   :     0.007949
      dxy     :     0.010940

 12 C s       :     3.253167  s :     3.253167
      pz      :     1.060441  p :     3.188475
      px      :     1.009285
      py      :     1.118749
      dz2     :     0.009359  d :     0.037452
      dxz     :     0.009385
      dyz     :     0.002467
      dx2y2   :     0.005923
      dxy     :     0.010318

 13 C s       :     3.285067  s :     3.285067
      pz      :     0.971725  p :     2.836935
      px      :     0.851410
      py      :     1.013800
      dz2     :     0.019146  d :     0.065626
      dxz     :     0.014478
      dyz     :     0.005235
      dx2y2   :     0.009398
      dxy     :     0.017368

 14 C s       :     3.049589  s :     3.049589
      pz      :     0.934652  p :     2.741586
      px      :     0.925707
      py      :     0.881227
      dz2     :     0.018202  d :     0.082605
      dxz     :     0.017977
      dyz     :     0.025361
      dx2y2   :     0.012093
      dxy     :     0.008971

 15 C s       :     3.201812  s :     3.201812
      pz      :     0.998844  p :     2.854282
      px      :     0.888918
      py      :     0.966519
      dz2     :     0.015380  d :     0.060213
      dxz     :     0.014006
      dyz     :     0.021195
      dx2y2   :     0.004115
      dxy     :     0.005515

 16 C s       :     3.159083  s :     3.159083
      pz      :     0.918195  p :     2.654927
      px      :     0.855351
      py      :     0.881380
      dz2     :     0.021470  d :     0.081387
      dxz     :     0.012809
      dyz     :     0.022702
      dx2y2   :     0.012099
      dxy     :     0.012307

 17 C s       :     3.309336  s :     3.309336
      pz      :     0.931029  p :     3.202519
      px      :     1.138048
      py      :     1.133442
      dz2     :     0.011562  d :     0.035584
      dxz     :     0.004714
      dyz     :     0.005693
      dx2y2   :     0.006293
      dxy     :     0.007322

 18 H s       :     0.751831  s :     0.751831

 19 H s       :     0.741666  s :     0.741666

 20 H s       :     0.780543  s :     0.780543

 21 H s       :     0.805279  s :     0.805279

 22 H s       :     0.715733  s :     0.715733

 23 H s       :     0.797703  s :     0.797703

 24 H s       :     0.794803  s :     0.794803

 25 H s       :     0.799564  s :     0.799564

 26 H s       :     0.804428  s :     0.804428

 27 H s       :     0.823313  s :     0.823313

 28 H s       :     0.822869  s :     0.822869

 29 H s       :     0.657491  s :     0.657491

 30 H s       :     0.633784  s :     0.633784

 31 H s       :     0.546107  s :     0.546107

 32 H s       :     0.801541  s :     0.801541

 33 H s       :     0.795981  s :     0.795981

 34 H s       :     0.803237  s :     0.803237



                     *******************************
                     * LOEWDIN POPULATION ANALYSIS *
                     *******************************

----------------------
LOEWDIN ATOMIC CHARGES
----------------------
   0 S :    0.807152
   1 O :   -0.809863
   2 N :   -0.057621
   3 N :   -0.191014
   4 N :   -0.184460
   5 N :   -0.419622
   6 C :   -0.026579
   7 C :   -0.153838
   8 C :   -0.225775
   9 C :   -0.249872
  10 C :   -0.177891
  11 C :   -0.247249
  12 C :   -0.392658
  13 C :    0.025682
  14 C :    0.085624
  15 C :   -0.020202
  16 C :    0.091344
  17 C :   -0.409340
  18 H :    0.193236
  19 H :    0.180631
  20 H :    0.195228
  21 H :    0.184115
  22 H :    0.216257
  23 H :    0.184561
  24 H :    0.182682
  25 H :    0.184857
  26 H :    0.182163
  27 H :    0.171703
  28 H :    0.169785
  29 H :    0.284169
  30 H :    0.300047
  31 H :    0.377947
  32 H :    0.175686
  33 H :    0.189897
  34 H :    0.183217

-------------------------------
LOEWDIN REDUCED ORBITAL CHARGES
-------------------------------
  0 S s       :     5.340735  s :     5.340735
      pz      :     2.978049  p :     9.705438
      px      :     3.279597
      py      :     3.447792
      dz2     :     0.021106  d :     0.146675
      dxz     :     0.063847
      dyz     :     0.024752
      dx2y2   :     0.020384
      dxy     :     0.016585

  1 O s       :     3.548719  s :     3.548719
      pz      :     1.711720  p :     4.882587
      px      :     1.441449
      py      :     1.729418
      dz2     :     0.094622  d :     0.378558
      dxz     :     0.099923
      dyz     :     0.045843
      dx2y2   :     0.045511
      dxy     :     0.092659

  2 N s       :     3.080524  s :     3.080524
      pz      :     1.234857  p :     3.862182
      px      :     1.256527
      py      :     1.370798
      dz2     :     0.030329  d :     0.114915
      dxz     :     0.034857
      dyz     :     0.017679
      dx2y2   :     0.016401
      dxy     :     0.015649

  3 N s       :     3.212642  s :     3.212642
      pz      :     1.215564  p :     3.896775
      px      :     1.267094
      py      :     1.414117
      dz2     :     0.029067  d :     0.081597
      dxz     :     0.013543
      dyz     :     0.020138
      dx2y2   :     0.008611
      dxy     :     0.010238

  4 N s       :     3.229222  s :     3.229222
      pz      :     1.298908  p :     3.871669
      px      :     1.219776
      py      :     1.352986
      dz2     :     0.030764  d :     0.083569
      dxz     :     0.012619
      dyz     :     0.017398
      dx2y2   :     0.009785
      dxy     :     0.013003

  5 N s       :     3.207079  s :     3.207079
      pz      :     1.264716  p :     4.156917
      px      :     1.578816
      py      :     1.313385
      dz2     :     0.010547  d :     0.055626
      dxz     :     0.011179
      dyz     :     0.016800
      dx2y2   :     0.008374
      dxy     :     0.008725

  6 C s       :     2.842816  s :     2.842816
      pz      :     0.938131  p :     3.059237
      px      :     1.103029
      py      :     1.018077
      dz2     :     0.043962  d :     0.124526
      dxz     :     0.032476
      dyz     :     0.015679
      dx2y2   :     0.016634
      dxy     :     0.015775

  7 C s       :     2.904733  s :     2.904733
      pz      :     1.079688  p :     3.146240
      px      :     0.924221
      py      :     1.142332
      dz2     :     0.021128  d :     0.102865
      dxz     :     0.026229
      dyz     :     0.017175
      dx2y2   :     0.017875
      dxy     :     0.020458

  8 C s       :     2.920688  s :     2.920688
      pz      :     1.076376  p :     3.208975
      px      :     1.080420
      py      :     1.052179
      dz2     :     0.023562  d :     0.096113
      dxz     :     0.034555
      dyz     :     0.011322
      dx2y2   :     0.012586
      dxy     :     0.014088

  9 C s       :     2.916440  s :     2.916440
      pz      :     1.052996  p :     3.253585
      px      :     1.086542
      py      :     1.114047
      dz2     :     0.018594  d :     0.079847
      dxz     :     0.021954
      dyz     :     0.009910
      dx2y2   :     0.010965
      dxy     :     0.018424

 10 C s       :     2.853942  s :     2.853942
      pz      :     1.030408  p :     3.227624
      px      :     1.106842
      py      :     1.090374
      dz2     :     0.030135  d :     0.096324
      dxz     :     0.013269
      dyz     :     0.030267
      dx2y2   :     0.010269
      dxy     :     0.012385

 11 C s       :     2.961733  s :     2.961733
      pz      :     1.122903  p :     3.174099
      px      :     1.046772
      py      :     1.004424
      dz2     :     0.024168  d :     0.111417
      dxz     :     0.038528
      dyz     :     0.007163
      dx2y2   :     0.019849
      dxy     :     0.021709

 12 C s       :     2.966304  s :     2.966304
      pz      :     1.121093  p :     3.364924
      px      :     1.089617
      py      :     1.154215
      dz2     :     0.014886  d :     0.061430
      dxz     :     0.016607
      dyz     :     0.003660
      dx2y2   :     0.009651
      dxy     :     0.016627

 13 C s       :     2.865504  s :     2.865504
      pz      :     0.997660  p :     2.977830
      px      :     0.929132
      py      :     1.051037
      dz2     :     0.036869  d :     0.130985
      dxz     :     0.030793
      dyz     :     0.009651
      dx2y2   :     0.017716
      dxy     :     0.035955

 14 C s       :     2.813663  s :     2.813663
      pz      :     1.013425  p :     2.925032
      px      :     0.924601
      py      :     0.987006
      dz2     :     0.041354  d :     0.175680
      dxz     :     0.036039
      dyz     :     0.056523
      dx2y2   :     0.022706
      dxy     :     0.019059

 15 C s       :     2.887658  s :     2.887658
      pz      :     1.041459  p :     3.009945
      px      :     0.933220
      py      :     1.035267
      dz2     :     0.036369  d :     0.122599
      dxz     :     0.027057
      dyz     :     0.043870
      dx2y2   :     0.006701
      dxy     :     0.008602

 16 C s       :     2.837925  s :     2.837925
      pz      :     1.052953  p :     2.898663
      px      :     0.874692
      py      :     0.971017
      dz2     :     0.046907  d :     0.172068
      dxz     :     0.023672
      dyz     :     0.046284
      dx2y2   :     0.024732
      dxy     :     0.030473

 17 C s       :     2.986463  s :     2.986463
      pz      :     1.046553  p :     3.365499
      px      :     1.158131
      py      :     1.160815
      dz2     :     0.020620  d :     0.057379
      dxz     :     0.008148
      dyz     :     0.009461
      dx2y2   :     0.008631
      dxy     :     0.010518

 18 H s       :     0.806764  s :     0.806764

 19 H s       :     0.819369  s :     0.819369

 20 H s       :     0.804772  s :     0.804772

 21 H s       :     0.815885  s :     0.815885

 22 H s       :     0.783743  s :     0.783743

 23 H s       :     0.815439  s :     0.815439

 24 H s       :     0.817318  s :     0.817318

 25 H s       :     0.815143  s :     0.815143

 26 H s       :     0.817837  s :     0.817837

 27 H s       :     0.828297  s :     0.828297

 28 H s       :     0.830215  s :     0.830215

 29 H s       :     0.715831  s :     0.715831

 30 H s       :     0.699953  s :     0.699953

 31 H s       :     0.622053  s :     0.622053

 32 H s       :     0.824314  s :     0.824314

 33 H s       :     0.810103  s :     0.810103

 34 H s       :     0.816783  s :     0.816783



                      *****************************
                      * MAYER POPULATION ANALYSIS *
                      *****************************

  NA   - Mulliken gross atomic population
  ZA   - Total nuclear charge
  QA   - Mulliken gross atomic charge
  VA   - Mayer's total valence
  BVA  - Mayer's bonded valence
  FA   - Mayer's free valence

  ATOM       NA         ZA         QA         VA         BVA        FA
  0 S     15.6924    16.0000     0.3076     2.7644     2.7644     0.0000
  1 O      8.5764     8.0000    -0.5764     1.7760     1.7760     0.0000
  2 N      6.9268     7.0000     0.0732     3.3126     3.3126     0.0000
  3 N      7.1404     7.0000    -0.1404     3.1670     3.1670     0.0000
  4 N      7.0843     7.0000    -0.0843     3.0978     3.0978     0.0000
  5 N      7.5850     7.0000    -0.5850     2.9794     2.9794     0.0000
  6 C      6.0513     6.0000    -0.0513     4.1153     4.1153    -0.0000
  7 C      6.6925     6.0000    -0.6925     3.6222     3.6222    -0.0000
  8 C      6.0426     6.0000    -0.0426     3.5617     3.5617    -0.0000
  9 C      6.2531     6.0000    -0.2531     3.6328     3.6328     0.0000
 10 C      5.8765     6.0000     0.1235     3.3145     3.3145    -0.0000
 11 C      6.1030     6.0000    -0.1030     3.8219     3.8219    -0.0000
 12 C      6.4791     6.0000    -0.4791     3.7980     3.7980    -0.0000
 13 C      6.1876     6.0000    -0.1876     3.7637     3.7637     0.0000
 14 C      5.8738     6.0000     0.1262     4.0828     4.0828     0.0000
 15 C      6.1163     6.0000    -0.1163     4.0986     4.0986     0.0000
 16 C      5.8954     6.0000     0.1046     3.9455     3.9455     0.0000
 17 C      6.5474     6.0000    -0.5474     3.7193     3.7193    -0.0000
 18 H      0.7518     1.0000     0.2482     0.9309     0.9309    -0.0000
 19 H      0.7417     1.0000     0.2583     0.8981     0.8981    -0.0000
 20 H      0.7805     1.0000     0.2195     0.9480     0.9480     0.0000
 21 H      0.8053     1.0000     0.1947     0.9534     0.9534    -0.0000
 22 H      0.7157     1.0000     0.2843     0.8940     0.8940     0.0000
 23 H      0.7977     1.0000     0.2023     0.9372     0.9372    -0.0000
 24 H      0.7948     1.0000     0.2052     0.9389     0.9389    -0.0000
 25 H      0.7996     1.0000     0.2004     0.9478     0.9478    -0.0000
 26 H      0.8044     1.0000     0.1956     0.9351     0.9351    -0.0000
 27 H      0.8233     1.0000     0.1767     0.9286     0.9286     0.0000
 28 H      0.8229     1.0000     0.1771     0.9430     0.9430    -0.0000
 29 H      0.6575     1.0000     0.3425     0.8556     0.8556    -0.0000
 30 H      0.6338     1.0000     0.3662     0.8616     0.8616     0.0000
 31 H      0.5461     1.0000     0.4539     0.7666     0.7666    -0.0000
 32 H      0.8015     1.0000     0.1985     0.9554     0.9554    -0.0000
 33 H      0.7960     1.0000     0.2040     0.9448     0.9448    -0.0000
 34 H      0.8032     1.0000     0.1968     0.9470     0.9470    -0.0000

  Mayer bond orders larger than 0.100000
B(  0-S ,  8-C ) :   1.2029 B(  0-S , 11-C ) :   1.3325 B(  1-O , 13-C ) :   0.9390 
B(  1-O , 31-H ) :   0.7480 B(  2-N ,  6-C ) :   1.1877 B(  2-N ,  7-C ) :   0.8086 
B(  2-N , 11-C ) :   1.4281 B(  3-N , 14-C ) :   1.5285 B(  3-N , 16-C ) :   1.5334 
B(  4-N , 15-C ) :   1.6099 B(  4-N , 16-C ) :   1.4222 B(  5-N , 14-C ) :   1.2365 
B(  5-N , 29-H ) :   0.8223 B(  5-N , 30-H ) :   0.8200 B(  6-C ,  8-C ) :   1.6389 
[...]
 39:    758.93   0.001836    9.28  0.000755  ( 0.021882 -0.007235  0.014960)
 40:    773.19   0.003534   17.86  0.001426  (-0.017975 -0.028504 -0.017045)
 41:    778.89   0.002257   11.41  0.000904  (-0.022050  0.018318 -0.009089)
 42:    802.91   0.002673   13.51  0.001039  (-0.002093 -0.003859 -0.031930)
 43:    820.66   0.001356    6.85  0.000516  ( 0.011047  0.005975 -0.018920)
 44:    884.08   0.003892   19.67  0.001374  (-0.036354 -0.006359  0.003436)
 45:    914.55   0.000397    2.00  0.000135  ( 0.009035  0.001657 -0.007137)
 46:    933.59   0.000771    3.89  0.000258  (-0.012981 -0.006833 -0.006508)
 47:    936.62   0.000345    1.75  0.000115  ( 0.003983  0.008903  0.004463)
 48:    949.30   0.000741    3.75  0.000244  ( 0.013645 -0.002068  0.007291)
 49:    984.31   0.003101   15.67  0.000983  (-0.010483  0.019170 -0.022490)
 50:   1016.17   0.001719    8.69  0.000528  ( 0.003467 -0.014828 -0.017204)
 51:   1020.28   0.002156   10.90  0.000659  ( 0.020911 -0.002107 -0.014756)
 52:   1047.30   0.004145   20.95  0.001235  (-0.013086 -0.011154 -0.030649)
 53:   1049.43   0.001612    8.14  0.000479  (-0.012480 -0.010347 -0.014711)
 54:   1056.46   0.002647   13.37  0.000782  (-0.019659 -0.007926 -0.018234)
 55:   1064.18   0.000837    4.23  0.000245  (-0.007333  0.001376  0.013775)
 56:   1081.95   0.010028   50.68  0.002892  ( 0.049456  0.000033 -0.021130)
 57:   1115.56   0.002073   10.48  0.000580  (-0.008006  0.008596 -0.021025)
 58:   1167.39   0.008948   45.22  0.002392  (-0.036849 -0.011375 -0.030080)
 59:   1207.93   0.004283   21.64  0.001106  (-0.020563  0.008365  0.024771)
 60:   1223.68   0.000948    4.79  0.000242  (-0.008585  0.003772  0.012403)
 61:   1236.79   0.007210   36.44  0.001819  (-0.017550 -0.014546 -0.036049)
 62:   1245.72   0.001205    6.09  0.000302  (-0.001048 -0.004733  0.016681)
 63:   1251.88   0.003160   15.97  0.000788  (-0.026562  0.002414  0.008741)
 64:   1297.68   0.005552   28.06  0.001335  (-0.008700  0.029955  0.019032)
 65:   1307.74   0.000543    2.74  0.000130  ( 0.006297 -0.006233  0.007142)
 66:   1310.41   0.004639   23.44  0.001105  ( 0.028906 -0.013087 -0.009893)
 67:   1318.27   0.007630   38.56  0.001806  ( 0.017208  0.015007  0.035846)
 68:   1357.86   0.001646    8.32  0.000378  (-0.007366 -0.015058 -0.009867)
 69:   1362.11   0.001086    5.49  0.000249  (-0.000601  0.010149 -0.012057)
 70:   1368.32   0.009423   47.62  0.002149  ( 0.015035  0.010976  0.042456)
 71:   1404.81   0.001148    5.80  0.000255  ( 0.004466  0.007376  0.013443)
 72:   1428.74   0.007412   37.46  0.001619  (-0.004462 -0.003090  0.039869)
 73:   1430.14   0.001585    8.01  0.000346  (-0.009621  0.006609 -0.014482)
 74:   1436.06   0.001622    8.19  0.000352  ( 0.004638  0.011959  0.013706)
 75:   1457.62   0.038478  194.45  0.008238  ( 0.022192 -0.019211  0.085885)
 76:   1466.55   0.001607    8.12  0.000342  ( 0.009512  0.012306 -0.010002)
 77:   1477.39   0.005975   30.20  0.001262  ( 0.000124 -0.022674  0.027350)
 78:   1480.86   0.002802   14.16  0.000591  ( 0.009318  0.016547 -0.015163)
 79:   1482.15   0.001885    9.53  0.000397  ( 0.006421 -0.008433 -0.016868)
 80:   1490.19   0.006619   33.45  0.001386  (-0.014940  0.034073 -0.001389)
 81:   1493.46   0.001249    6.31  0.000261  ( 0.008980 -0.004369 -0.012700)
 82:   1513.20   0.002934   14.83  0.000605  (-0.020813 -0.001104 -0.013061)
 83:   1522.75   0.000976    4.93  0.000200  ( 0.007975  0.011471 -0.002206)
 84:   1570.06   0.031867  161.04  0.006334  (-0.032671  0.072382  0.005226)
 85:   1609.15   0.002190   11.07  0.000425  ( 0.020135 -0.000412 -0.004362)
 86:   1612.92   0.059834  302.38  0.011577  (-0.014186  0.000920 -0.106651)
 87:   1664.71   0.041922  211.86  0.007859  ( 0.008692 -0.076016  0.044773)
 88:   2971.83   0.008461   42.76  0.000888  ( 0.008729 -0.023046 -0.016767)
 89:   3007.50   0.001295    6.55  0.000134  ( 0.004859  0.004624  0.009456)
 90:   3016.51   0.000813    4.11  0.000084  ( 0.008142  0.003115  0.002846)
 91:   3016.85   0.000123    0.62  0.000013  ( 0.002707  0.000915  0.002145)
 92:   3024.07   0.002150   10.87  0.000222  ( 0.011300  0.002345 -0.009419)
 93:   3024.48   0.007450   37.65  0.000769  ( 0.007799 -0.009165  0.024978)
 94:   3070.13   0.000080    0.40  0.000008  ( 0.000997  0.001848  0.001927)
 95:   3071.46   0.001129    5.70  0.000115  ( 0.002342 -0.010408 -0.000932)
 96:   3080.26   0.004993   25.23  0.000506  ( 0.007130 -0.015974 -0.014138)
 97:   3081.77   0.001068    5.40  0.000108  (-0.007550 -0.003701  0.006117)
 98:   3082.56   0.001402    7.09  0.000142  ( 0.007500 -0.003656 -0.008505)
 99:   3135.29   0.001434    7.24  0.000143  (-0.001958 -0.002774 -0.011452)
100:   3135.45   0.001226    6.20  0.000122  (-0.004233  0.008974  0.004855)
101:   3236.08   0.006214   31.40  0.000599  ( 0.005043  0.003164  0.023745)
102:   3520.06   0.009815   49.60  0.000870  (-0.004222  0.029066  0.002736)
103:   3636.95   0.004653   23.51  0.000399  ( 0.004541 -0.009360 -0.017059)
104:   3759.13   0.013283   67.12  0.001103  (-0.026173 -0.020385  0.001430)

* The epsilon (eps) is given for a Dirac delta lineshape.
** The dipole moment derivative (T) already includes vibrational overlap.

The first frequency considered to be a vibration is 6
The total number of vibrations considered is 99


--------------------------
THERMOCHEMISTRY AT 298.15K
--------------------------

Temperature         ...   298.15 K
Pressure            ...     1.00 atm
Total Mass          ...   265.35 AMU
Quasi RRHO          ...     True
Cut-Off Frequency   ...     1.00 cm^-1

Throughout the following assumptions are being made:
  (1) The electronic state is orbitally nondegenerate
  (2) There are no thermally accessible electronically excited states
  (3) Hindered rotations indicated by low frequency modes are not
      treated as such but are treated as vibrations and this may
      cause some error
  (4) All equations used are the standard statistical mechanics
      equations for an ideal gas
  (5) All vibrations are strictly harmonic

freq.      22.49  E(vib)   ...       0.56 
freq.      29.27  E(vib)   ...       0.55 
freq.      36.56  E(vib)   ...       0.54 
freq.      42.43  E(vib)   ...       0.53 
freq.      51.43  E(vib)   ...       0.52 
freq.      94.12  E(vib)   ...       0.47 
freq.     108.63  E(vib)   ...       0.45 
freq.     141.45  E(vib)   ...       0.41 
freq.     148.41  E(vib)   ...       0.41 
freq.     185.89  E(vib)   ...       0.37 
freq.     190.75  E(vib)   ...       0.36 
freq.     206.04  E(vib)   ...       0.35 
freq.     231.50  E(vib)   ...       0.32 
freq.     259.76  E(vib)   ...       0.30 
freq.     298.43  E(vib)   ...       0.26 
freq.     307.23  E(vib)   ...       0.26 
freq.     316.75  E(vib)   ...       0.25 
freq.     324.76  E(vib)   ...       0.24 
freq.     335.18  E(vib)   ...       0.24 
freq.     404.60  E(vib)   ...       0.19 
freq.     408.19  E(vib)   ...       0.19 
freq.     439.17  E(vib)   ...       0.17 
freq.     465.19  E(vib)   ...       0.16 
freq.     492.50  E(vib)   ...       0.14 
freq.     505.16  E(vib)   ...       0.14 
freq.     540.94  E(vib)   ...       0.12 
freq.     570.74  E(vib)   ...       0.11 
freq.     575.04  E(vib)   ...       0.11 
freq.     593.28  E(vib)   ...       0.10 
freq.     609.69  E(vib)   ...       0.10 
freq.     638.85  E(vib)   ...       0.09 
freq.     648.19  E(vib)   ...       0.08 
freq.     671.63  E(vib)   ...       0.08 
freq.     758.93  E(vib)   ...       0.06 
freq.     773.19  E(vib)   ...       0.05 
freq.     778.89  E(vib)   ...       0.05 
freq.     802.91  E(vib)   ...       0.05 
freq.     820.66  E(vib)   ...       0.05 
freq.     884.08  E(vib)   ...       0.04 
freq.     914.55  E(vib)   ...       0.03 
freq.     933.59  E(vib)   ...       0.03 
freq.     936.62  E(vib)   ...       0.03 
freq.     949.30  E(vib)   ...       0.03 
freq.     984.31  E(vib)   ...       0.02 
freq.    1016.17  E(vib)   ...       0.02 
freq.    1020.28  E(vib)   ...       0.02 
freq.    1047.30  E(vib)   ...       0.02 
freq.    1049.43  E(vib)   ...       0.02 
freq.    1056.46  E(vib)   ...       0.02 
freq.    1064.18  E(vib)   ...       0.02 
freq.    1081.95  E(vib)   ...       0.02 
freq.    1115.56  E(vib)   ...       0.01 
freq.    1167.39  E(vib)   ...       0.01 
freq.    1207.93  E(vib)   ...       0.01 
freq.    1223.68  E(vib)   ...       0.01 
freq.    1236.79  E(vib)   ...       0.01 
freq.    1245.72  E(vib)   ...       0.01 
freq.    1251.88  E(vib)   ...       0.01 
freq.    1297.68  E(vib)   ...       0.01 
freq.    1307.74  E(vib)   ...       0.01 
freq.    1310.41  E(vib)   ...       0.01 
freq.    1318.27  E(vib)   ...       0.01 
freq.    1357.86  E(vib)   ...       0.01 
freq.    1362.11  E(vib)   ...       0.01 
freq.    1368.32  E(vib)   ...       0.01 
freq.    1404.81  E(vib)   ...       0.00 
freq.    1428.74  E(vib)   ...       0.00 
freq.    1430.14  E(vib)   ...       0.00 
freq.    1436.06  E(vib)   ...       0.00 
freq.    1457.62  E(vib)   ...       0.00 
freq.    1466.55  E(vib)   ...       0.00 
freq.    1477.39  E(vib)   ...       0.00 
freq.    1480.86  E(vib)   ...       0.00 
freq.    1482.15  E(vib)   ...       0.00 
freq.    1490.19  E(vib)   ...       0.00 
freq.    1493.46  E(vib)   ...       0.00 
freq.    1513.20  E(vib)   ...       0.00 
freq.    1522.75  E(vib)   ...       0.00 
freq.    1570.06  E(vib)   ...       0.00 
freq.    1609.15  E(vib)   ...       0.00 
freq.    1612.92  E(vib)   ...       0.00 
freq.    1664.71  E(vib)   ...       0.00 
freq.    2971.83  E(vib)   ...       0.00 
freq.    3007.50  E(vib)   ...       0.00 
freq.    3016.51  E(vib)   ...       0.00 
freq.    3016.85  E(vib)   ...       0.00 
freq.    3024.07  E(vib)   ...       0.00 
freq.    3024.48  E(vib)   ...       0.00 
freq.    3070.13  E(vib)   ...       0.00 
freq.    3071.46  E(vib)   ...       0.00 
freq.    3080.26  E(vib)   ...       0.00 
freq.    3081.77  E(vib)   ...       0.00 
freq.    3082.56  E(vib)   ...       0.00 
freq.    3135.29  E(vib)   ...       0.00 
freq.    3135.45  E(vib)   ...       0.00 
freq.    3236.08  E(vib)   ...       0.00 
freq.    3520.06  E(vib)   ...       0.00 
freq.    3636.95  E(vib)   ...       0.00 
freq.    3759.13  E(vib)   ...       0.00 

------------
INNER ENERGY
------------

The inner energy is: U= E(el) + E(ZPE) + E(vib) + E(rot) + E(trans)
    E(el)   - is the total energy from the electronic structure calculation
              = E(kin-el) + E(nuc-el) + E(el-el) + E(nuc-nuc)
    E(ZPE)  - the the zero temperature vibrational energy from the frequency calculation
    E(vib)  - the the finite temperature correction to E(ZPE) due to population
              of excited vibrational states
    E(rot)  - is the rotational thermal energy
    E(trans)- is the translational thermal energy

Summary of contributions to the inner energy U:
Electronic energy                ...  -1159.31879332 Eh
Zero point energy                ...      0.28465599 Eh     178.62 kcal/mol
Thermal vibrational correction   ...      0.01581604 Eh       9.92 kcal/mol
Thermal rotational correction    ...      0.00141627 Eh       0.89 kcal/mol
Thermal translational correction ...      0.00141627 Eh       0.89 kcal/mol
-----------------------------------------------------------------------
Total thermal energy                  -1159.01548875 Eh


Summary of corrections to the electronic energy:
(perhaps to be used in another calculation)
Total thermal correction                  0.01864859 Eh      11.70 kcal/mol
Non-thermal (ZPE) correction              0.28465599 Eh     178.62 kcal/mol
-----------------------------------------------------------------------
Total correction                          0.30330457 Eh     190.33 kcal/mol


--------
ENTHALPY
--------

The enthalpy is H = U + kB*T
                kB is Boltzmann's constant
Total thermal energy              ...  -1159.01548875 Eh 
Thermal Enthalpy correction       ...      0.00094421 Eh       0.59 kcal/mol
-----------------------------------------------------------------------
Total Enthalpy                    ...  -1159.01454454 Eh


Note: Only C1 symmetry has been detected, increase convergence thresholds 
      if your molecule has a higher symmetry. Symmetry factor of 1.0 is   
      used for the rotational entropy correction. 
 

Note: Rotational entropy computed according to Herzberg 
Infrared and Raman Spectra, Chapter V,1, Van Nostrand Reinhold, 1945 
Point Group:  C1, Symmetry Number:   1  
Rotational constants in cm-1:     0.030636     0.005892     0.005527 

Vibrational entropy computed according to the QRRHO of S. Grimme
Chem.Eur.J. 2012 18 9955 using a reference frequency of 100.0 cm-1


-------
ENTROPY
-------

The entropy contributions are T*S = T*(S(el)+S(vib)+S(rot)+S(trans))
     S(el)   - electronic entropy
     S(vib)  - vibrational entropy
     S(rot)  - rotational entropy
     S(trans)- translational entropy
The entropies will be listed as multiplied by the temperature to get
units of energy

Electronic entropy                ...      0.00000000 Eh      0.00 kcal/mol
Vibrational entropy               ...      0.02826791 Eh     17.74 kcal/mol
Rotational entropy                ...      0.01603408 Eh     10.06 kcal/mol
Translational entropy             ...      0.02025338 Eh     12.71 kcal/mol
-----------------------------------------------------------------------
Final entropy term                ...      0.06455537 Eh     40.51 kcal/mol

In case the symmetry of your molecule has not been determined correctly
or in case you have a reason to use a different symmetry number we print 
out the resulting rotational entropy values for sn=1,12:

 non-linear molecules -----------------------------------
|  sn= 1 | S(rot)=       0.01603408 Eh     10.06 kcal/mol|
|  sn= 2 | S(rot)=       0.01537963 Eh      9.65 kcal/mol|
|  sn= 3 | S(rot)=       0.01499680 Eh      9.41 kcal/mol|
|  sn= 4 | S(rot)=       0.01472517 Eh      9.24 kcal/mol|
|  sn= 5 | S(rot)=       0.01451448 Eh      9.11 kcal/mol|
|  sn= 6 | S(rot)=       0.01434234 Eh      9.00 kcal/mol|
|  sn= 7 | S(rot)=       0.01419679 Eh      8.91 kcal/mol|
|  sn= 8 | S(rot)=       0.01407072 Eh      8.83 kcal/mol|
|  sn= 9 | S(rot)=       0.01395951 Eh      8.76 kcal/mol|
|  sn=10 | S(rot)=       0.01386003 Eh      8.70 kcal/mol|
|  sn=11 | S(rot)=       0.01377004 Eh      8.64 kcal/mol|
|  sn=12 | S(rot)=       0.01368788 Eh      8.59 kcal/mol|
 linear molecules ---------------------------------------
|  Dinfh | S(rot)=       0.01023374 Eh      6.42 kcal/mol|
|  Cinfv | S(rot)=       0.01088819 Eh      6.83 kcal/mol|
 --------------------------------------------------------


-------------------
GIBBS FREE ENERGY
-------------------

The Gibbs free energy is G = H - T*S

Total enthalpy                    ...  -1159.01454454 Eh 
Total entropy correction          ...     -0.06455537 Eh    -40.51 kcal/mol
-----------------------------------------------------------------------
Final Gibbs free energy         ...  -1159.07909991 Eh

For completeness - the Gibbs free energy minus the electronic energy
G-E(el)                           ...      0.23969341 Eh    150.41 kcal/mol


Maximum memory used throughout the entire PROP-calculation: 105.4 MB

--------------------------------
SUGGESTED CITATIONS FOR THIS RUN
--------------------------------

Below you find a list of papers that are relevant to this ORCA run
We neither can nor want to force you to cite these papers, but we appreciate if you do
You receive ORCA, which is the product of decades of hard work by many enthusiastic individuals, for free
The only thing we kindly ask in return is that you cite our papers,
We deeply appreciate it, if you show your appreciation for ORCA by not just citing the generic ORCA reference.

Please note that relegating all ORCA citations to the supporting information does *not* help us.
SI sections are not indexed - citations you put there will not count into any citation statistics
But we need these citations in order to attract the funding resources that allow us to do what we are doing

Therefore, if you are a happy ORCA user, please consider citing a few of the papers listed below in the main body of your paper

In addition to the list printed below, the program has created the file m1_01_Vitamin_B1-QM3_07-B97-3C-TZ.bibtex that contains the list in bibtex format
You can import this file easily into all common literature databanks and citation aid programs


List of essential papers. We consider these as the minimum necessary citations

  1. Neese,F.
     Software update: the ORCA program system, version 5.0
     WIRES Comput. Molec. Sci., 2022 12(1)e1606
     doi.org/10.1002/wcms.1606

List of papers to cite with high priority. The work reported in these papers was absolutely
necessary for this run to complete.
Our perspective: the developers of density functionals and basis sets usually get cited in chemistry papers
Good! But without the algorithms to do something with them, the functionals or basis sets would not do anything.
Hence, in our opinion, the algorithm design and method developments papers are equally worthy of getting cited

  1. Neese,F.
     An improvement of the resolution of the identity approximation for the formation of the Coulomb matrix
     J. Comp. Chem., 2003 24(14)1740-1747
     doi.org/10.1002/jcc.10318
  2. Bykov,D.; Petrenko,T.; Izsak,R.; Kossmann,S.; Becker,U.; Valeev,E.; Neese,F.
     Efficient implementation of the analytic second derivatives of Hartree-Fock and hybrid DFT energies: a detailed analysis of different approximations
     Molec. Phys., 2015 113 1961-1977
     doi.org/10.1080/00268976.2015.1025114
  3. Neese,F.
     The SHARK Integral Generation and Digestion System
     J. Comp. Chem., 2022  1-16
     doi.org/10.1002/jcc.26942
  4. Grimme,S.; Antony,J.; Ehrlich,S.; Krieg,H.
     A consistent and accurate ab initio parametrization of density functional dispersion correction (DFT-D) for the 94 elements H-Pu
     J. Chem. Phys., 2010 132 154104
     doi.org/10.1063/1.3382344
  5. Grimme,S.; Ehrlich,S.; Goerigk,L.
     Effect of the damping function in dispersion corrected density functional theory
     J. Comput. Chem., 2011 32(7)1456-1465
     doi.org/10.1002/jcc.21759

List of suggested additional citations. These are papers that are important in the 'surrounding' of 
of this run, or papers that preceded the highly important papers. If you like your results we are grateful for a citation.

  1. Neese,F.
     The ORCA program system
     WIRES Comput. Molec. Sci., 2012 2(1)73-78
     doi.org/10.1002/wcms.81
  2. Neese,F.
     Software update: the ORCA program system, version 4.0
     WIRES Comput. Molec. Sci., 2018 8(1)1-6
     doi.org/10.1002/wcms.1327
  3. Neese,F.; Wennmohs,F.; Becker,U.; Riplinger,C.
     The ORCA quantum chemistry program package
     J. Chem. Phys., 2020 152 Art. No. L224108
     doi.org/10.1063/5.0004608

List of optional additional citations

  1. Neese,F.
     Approximate second-order SCF convergence for spin unrestricted wavefunctions
     Chem. Phys. Lett., 2000 325(1-3)93-98
     doi.org/10.1016/s0009-2614(00)00662-x

Timings for individual modules:

Sum of individual times          ...      293.069 sec (=   4.884 min)
Startup calculation              ...       32.843 sec (=   0.547 min)  11.2 %
SCF iterations                   ...       60.860 sec (=   1.014 min)  20.8 %
Property integrals               ...       67.501 sec (=   1.125 min)  23.0 %
SCF Response                     ...       70.240 sec (=   1.171 min)  24.0 %
Property calculations            ...       29.397 sec (=   0.490 min)  10.0 %
SCF Gradient evaluation          ...       32.157 sec (=   0.536 min)  11.0 %
Geometry relaxation              ...        0.070 sec (=   0.001 min)   0.0 %
                             ****ORCA TERMINATED NORMALLY****
TOTAL RUN TIME: 0 days 0 hours 4 minutes 55 seconds 100 msec
