
                                 *****************
                                 * O   R   C   A *
                                 *****************

                                            #,                                       
                                            ###                                      
                                            ####                                     
                                            #####                                    
                                            ######                                   
                                           ########,                                 
                                     ,,################,,,,,                         
                               ,,#################################,,                 
                          ,,##########################################,,             
                       ,#########################################, ''#####,          
                    ,#############################################,,   '####,        
                  ,##################################################,,,,####,       
                ,###########''''           ''''###############################       
              ,#####''   ,,,,##########,,,,          '''####'''          '####       
            ,##' ,,,,###########################,,,                        '##       
           ' ,,###''''                  '''############,,,                           
         ,,##''                                '''############,,,,        ,,,,,,###''
      ,#''                                            '''#######################'''  
     '                                                          ''''####''''         
             ,#######,   #######,   ,#######,      ##                                
            ,#'     '#,  ##    ##  ,#'     '#,    #''#        ,####,   ,####,        
            ##       ##  ##   ,#'  ##            #'  '#       #'       #'  '#        
            ##       ##  #######   ##           ,######,      #####,   #    #        
            '#,     ,#'  ##    ##  '#,     ,#' ,#      #,     #,   #   #,  ,#        
             '#######'   ##     ##  '#######'  #'      '#     '####' # '####'        



                #########################################################
                #                        -***-                          #
                #          Department of theory and spectroscopy        #
                #                                                       #
                #                      Frank Neese                      #
                #                                                       #
                #     Directorship, Architecture, Infrastructure        #
                #                    SHARK, DRIVERS                     #
                #        Core code/Algorithms in most modules           #
                #                                                       #
                #        Max Planck Institute fuer Kohlenforschung      #
                #                Kaiser Wilhelm Platz 1                 #
                #                 D-45470 Muelheim/Ruhr                 #
                #                      Germany                          #
                #                                                       #
                #                  All rights reserved                  #
                #                        -***-                          #
                #########################################################


                         Program Version 6.0.1  -  RELEASE   -


 With contributions from (in alphabetic order):
[Max-Planck-Institut fuer Kohlenforschung]                               
  Daniel Aravena         : Magnetic Suceptibility                        
  Michael Atanasov       : Ab Initio Ligand Field Theory (pilot matlab implementation)
  Alexander A. Auer      : GIAO ZORA, VPT2 properties, NMR spectrum      
  Ute Becker             : All parallelization in ORCA, NUMFREQ, NUMCALC 
  Giovanni Bistoni       : ED, misc. LED, open-shell LED, HFLD           
  Martin Brehm           : Molecular dynamics                            
  Dmytro Bykov           : pre 5.0 version of the SCF Hessian            
  Marcos Casanova-Páez   : Triplet and SCS-CIS(D). UHF-(DLPNO)-IP/EA/STEOM-CCSD. UHF-CVS-IP/STEOM-CCSD   
  Vijay G. Chilkuri      : MRCI spin determinant printing, contributions to CSF-ICE 
  Pauline Colinet        : FMM embedding                                 
  Dipayan Datta          : RHF DLPNO-CCSD density                        
  Achintya Kumar Dutta   : EOM-CC, STEOM-CC                              
  Nicolas Foglia         : Exact transition moments, OPA infrastructure, MCD improvements    
  Dmitry Ganyushin       : Spin-Orbit,Spin-Spin,Magnetic field MRCI      
  Miquel Garcia-Rates    : C-PCM and meta-GGA Hessian, CCSD/C-PCM, Gaussian charge scheme 
  Tiago L. C. Gouveia    : GS-ROHF, GS-ROCIS                             
  Yang Guo               : DLPNO-NEVPT2, F12-NEVPT2, CIM, IAO-localization        
  Andreas Hansen         : Spin unrestricted coupled pair/coupled cluster methods 
  Ingolf Harden          : AUTO-CI MPn and infrastructure                
  Benjamin Helmich-Paris : MC-RPA, TRAH-(SCF,CASSCF), AVAS, COSX integrals, SCF dyn. polar. 
  Lee Huntington         : MR-EOM, pCC                                   
  Robert Izsak           : Overlap fitted RIJCOSX, COSX-SCS-MP3, EOM     
  Riya Kayal             : Wick's Theorem for AUTO-CI, AUTO-CI UHF-CCSDT 
  Emily Kempfer          : AUTO-CI, RHF CISDT and CCSDT                  
  Christian Kollmar      : KDIIS, OOCD, Brueckner-CCSD(T), CCSD density, CASPT2, CASPT2-K, improved NEVPT2 
  Axel Koslowski         : Symmetry handling                             
  Simone Kossmann        : meta-GGA functionals, TD-DFT gradient, OOMP2, (MP2 Hessian; deprecated post 5.0) 
  Lucas Lang             : DCDCAS                                        
  Marvin Lechner         : AUTO-CI (C++ implementation), FIC-MRCC        
  Spencer Leger          : CASSCF response                               
  Dagmar Lenk            : GEPOL surface, SMD, ORCA-2-JSON               
  Dimitrios Liakos       : Extrapolation schemes; Compound Job, initial MDCI parallelization 
  Dimitrios Manganas     : Further ROCIS development; embedding schemes. LFT, Crystal Embedding 
  Dimitrios Pantazis     : SARC Basis sets                               
  Anastasios Papadopoulos: AUTO-CI, single reference methods and gradients 
  Taras Petrenko         : pre 6.0 DFT Hessian and TD-DFT gradient, (ASA, deprecated), ECA, 1-Electron XAS/XES, NRVS 
  Peter Pinski           : DLPNO-MP2, DLPNO-MP2 Gradient                 
  Christoph Reimann      : Effective Core Potentials                     
  Marius Retegan         : Local ZFS, SOC                                
  Christoph Riplinger    : Optimizer, TS searches, QM/MM, DLPNO-CCSD(T), (RO)-DLPNO pert. Triples 
  Michael Roemelt        : Original ROCIS implementation                 
  Masaaki Saitow         : Open-shell DLPNO-CCSD energy and density      
  Barbara Sandhoefer     : DKH picture change effects                    
  Kantharuban Sivalingam : CASSCF convergence/infrastructure, NEVPT2 and variants, FIC-MRCI 
  Bernardo de Souza      : ESD, SOC TD-DFT                               
  Georgi L. Stoychev     : AutoAux, RI-MP2 NMR, DLPNO-MP2 response, X2C  
  Van Anh Tran           : RI-MP2 g-tensors                              
  Willem Van den Heuvel  : Paramagnetic NMR                              
  Zikuan Wang            : NOTCH, Electric field optimization            
  Frank Wennmohs         : Technical directorship and infrastructure     
  Hang Xu                : AUTO-CI-Response properties                   
                                                                         
[FACCTs GmbH]                                                            
  Markus Bursch, Miquel Garcia-Rates, Christoph Riplinger, Bernardo de Souza, Georgi L. Stoychev 
                                                                 
  APM, Basis sets (HGBS, AHGBS, def-TZVP (Ac-Lr), def2-XVPD (La-Lu)), CI-OPT, improved COSX, DLPNO-Multilevel,           
  DOCKER, DRACO, updates on ESD, GOAT, IRC, LR-CPCM, MBIS, meta-GGA TD-DFT gradient, ML-optimized integration grids, 
  MM, NACMEs, nearIR, NEB, NEB-TS, NL-DFT gradient (VV10), 2- and 3-layer-ONIOM, interface openCOSMO-RS, QMMM,   
  Crystal-QMMM, SF, symmetry and pop. for TD-DFT, r2SCAN hybrids, SOLVATOR                                   
                                                                         
[Other institutions]                                                     
  V. Asgeirsson          : NEB                                           
  Christoph Bannwarth    : sTDA-DFT, sTD-DFT, PBEh-3c, B97-3c, D3        
  Sebastian Ehlert       : rSCAN, r2SCAN, r2SCAN-3c, D4, dhf basis sets  
  Marvin Friede          : D4 for Fr, Ra, Ac-Lr                          
  Lars Goerigk           : TD-DFT with DH, B97 family of functionals     
  Stefan Grimme          : VdW corrections, initial TS optimization, DFT functionals, gCP, sTDA/sTD-DF 
  Waldemar Hujo          : DFT-NL                                        
  H. Jonsson             : NEB                                           
  Holger Kruse           : gCP                                           
  Marcel Mueller         : wB97X-3c, vDZP basis set                      
  Hagen Neugebauer       : wr2SCAN                                       
  Tobias Risthaus        : range-separated hybrid DFT                    
  Lukas Wittmann         : regularized MP2, r2SCAN double-hybrids, wr2SCAN        
                                                                         
We gratefully acknowledge several colleagues who have allowed us to      
interface, adapt or use parts of their codes:                            
  Ed Valeev, F. Pavosevic, A. Kumar             : LibInt (2-el integral package), F12 methods 
  Garnet Chan, S. Sharma, J. Yang, R. Olivares  : DMRG                   
  Ulf Ekstrom                                   : XCFun DFT Library      
  Mihaly Kallay                                 : mrcc  (arbitrary order and MRCC methods)
  Frank Weinhold                                : gennbo (NPA and NBO analysis)           
  Simon Mueller                                 : openCOSMO-RS                            
  Christopher J. Cramer and Donald G. Truhlar   : smd solvation model                     
  S Lehtola, MJT Oliveira, MAL Marques          : LibXC Library                           
  Liviu Ungur et al                             : ANISO software                          


 Your calculation uses the libint2 library for the computation of 2-el integrals
 For citations please refer to: http://libint.valeyev.net

 Your ORCA version has been built with support for libXC version: 6.2.2
 For citations please refer to: https://libxc.gitlab.io

 This ORCA versions uses:
   CBLAS   interface :  Fast vector & matrix operations
   LAPACKE interface :  Fast linear algebra routines
   SCALAPACK package :  Parallel linear algebra routines
   Shared memory     :  Shared parallel matrices
   BLAS/LAPACK       :  OpenBLAS 0.3.27  USE64BITINT DYNAMIC_ARCH NO_AFFINITY Zen SINGLE_THREADED
        Core in use  :  Zen
   Copyright (c) 2011-2014, The OpenBLAS Project


NOTE: MaxCore=6000 MB was set to SCF,MP2,MDCI,CIPSI,MRCI and CIS
      => If you want to overwrite this, your respective input block should be placed after the MaxCore statement
Your calculation utilizes the atom-pairwise dispersion correction
with the Becke-Johnson damping scheme (D3BJ)


Your calculation employs the composite approach B97-3c by Grimme and coworkers.
For the correct reference, please check the publication list of the Grimme group:
http://www.thch.uni-bonn.de/tc/index.php?section=publikationen&subsection=grimme#2017
   

XCFun DFT library Copyright 2009-2010 Ulf Ekstrom and contributors.
See http://admol.org/xcfun for more information.
This is free software; see the source code for copying conditions.
There is ABSOLUTELY NO WARRANTY; not even for MERCHANTABILITY or FITNESS FOR A PARTICULAR PURPOSE.
For details see the documentation.
Scientific users of this library should cite U. Ekstrom, L. Visscher, R. Bast, A. J. Thorvaldsen and K. Ruud;
J.Chem.Theor.Comp. 2010, DOI: 10.1021/ct100117s
XCFun Version 0.99 

================================================================================

----- Orbital basis set information -----
Your calculation utilizes the basis: def2-mTZVP
----- AuxJ basis set information -----
Your calculation utilizes the basis: def2-mTZVP/J
================================================================================
                                        WARNINGS
                       Please study these warnings very carefully!
================================================================================


WARNING: Geometry Optimization
  ===> : Switching off AutoStart
         For restart on a previous wavefunction, please use MOREAD

================================================================================
                                       INPUT FILE
================================================================================
NAME = m1_01_Vitamin_B1-QM3_06-B97-3C-TZ.inp
|  1> %pal nprocs 16 end
|  2> %MaxCore 6000
|  3> # put your comments here
|  4> ! B97-3C  OPT  FREQ DEFGRID3 NOTRAH
|  5> %scf MaxIter 800 end
|  6> %output
|  7> Print [P_Hirshfeld] 1
|  8> end
|  9> %geom
| 10> MaxIter 3000
| 11>  TolE 1e-6 #TolE 5e-6 Energy change (a.u.)
| 12>  TolRMSG 3e-5 #TolRMSG 1e-4 RMS gradient (a.u.)
| 13>  TolMaxG 1e-4 #TolMaxG 3e-3 Max. element of gradient (a.u.)
| 14>  TolRMSD 2e-3 #TolRMSD 2e-3 RMS displacement (a.u.)
| 15>  TolMaxD 4e-3 #TolMaxD 4e-3 Max. displacement (a.u.)
| 16> end
| 17> * xyz 1 1
| 18>  S       1.09925629      -2.05608501       0.79612813
| 19>  O       0.98885647      -4.56182664       1.82177634
| 20>  N      -0.53070228      -0.23078881       0.20905936
| 21>  N       1.81882675       3.14511431      -1.18706545
| 22>  N       0.73832307       2.56714691      -3.20248850
| 23>  N       1.09211984       2.40528154       0.88395919
| 24>  C      -1.26235340      -1.11899898       1.00719020
| 25>  C      -1.12913015       0.99647059      -0.37039175
| 26>  C      -0.51709242      -2.17143461       1.41524694
| 27>  C      -0.93457884      -3.28656632       2.31637089
| 28>  C      -0.13856315       1.79107772      -1.12111925
| 29>  C       0.71164695      -0.60551549       0.02888215
| 30>  C      -2.69018366      -0.82724697       1.31378684
| 31>  C      -0.41829356      -4.63085485       1.85363333
| 32>  C       0.91112550       2.47912908      -0.47655325
| 33>  C      -0.16104393       1.88898581      -2.50906915
| 34>  C       1.71518832       3.18491639      -2.51529840
| 35>  C       2.73476772       3.96840011      -3.28621202
| 36>  H      -1.55985850       1.54070313       0.47265424
| 37>  H      -1.94493710       0.67541382      -1.01931462
| 38>  H      -2.02453426      -3.30339248       2.38696582
| 39>  H      -0.54257298      -3.09575805       3.31966442
| 40>  H       1.39835647      -0.03453089      -0.57144623
| 41>  H      -2.78156969       0.10573710       1.87277181
| 42>  H      -3.27034428      -0.73642403       0.39427870
| 43>  H      -3.11175404      -1.62880150       1.91303163
| 44>  H      -0.81755866      -4.87222574       0.85936455
| 45>  H      -0.77289956      -5.40866398       2.54338298
| 46>  H      -0.94541673       1.38558234      -3.07638523
| 47>  H       1.79219653       3.04324603       1.23411312
| 48>  H       0.27210135       2.32447169       1.46214390
| 49>  H       1.36732165      -5.43730224       1.68046183
| 50>  H       3.59113419       4.19770427      -2.65517562
| 51>  H       3.04406372       3.40576920      -4.16746437
| 52>  H       2.27810238       4.90126653      -3.62688253
| 53> *
| 54> 
| 55> 
| 56> 
| 57> 
| 58>                          ****END OF INPUT****
================================================================================

                       *****************************
                       * Geometry Optimization Run *
                       *****************************

Geometry optimization settings:
Update method            Update   .... BFGS
Choice of coordinates    CoordSys .... (2022) Redundant Internals
Initial Hessian          InHess   .... Almloef's Model
Max. no of cycles        MaxIter  .... 3000

Convergence Tolerances:
Energy Change            TolE     ....  1.0000e-06 Eh
Max. Gradient            TolMAXG  ....  1.0000e-04 Eh/bohr
RMS Gradient             TolRMSG  ....  3.0000e-05 Eh/bohr
Max. Displacement        TolMAXD  ....  4.0000e-03 bohr
RMS Displacement         TolRMSD  ....  2.0000e-03 bohr
Strict Convergence                .... False

------------------------------------------------------------------------------
                        ORCA OPTIMIZATION COORDINATE SETUP
------------------------------------------------------------------------------

The optimization will be done in redundant internal coordinates (2022)
Making redundant internal coordinates   ...  (2022 redundants) done
Evaluating the initial hessian          ...  (Almloef) done
Evaluating the coordinates              ...  done
Calculating the B-matrix                .... done
Calculating the G-matrix                .... done
Diagonalizing the G-matrix              .... done
Small eigenvalue found = 2.983e-03
Small eigenvalue found = 8.233e-03
Small eigenvalue found = 1.761e-02
Small eigenvalue found = 1.965e-02
Small eigenvalue found = 2.390e-02
The first mode is                       ....   68
The number of degrees of freedom        ....   99

    -----------------------------------------------------------------
                    Redundant Internal Coordinates


    -----------------------------------------------------------------
         Definition                    Initial Value    Approx d2E/dq
    -----------------------------------------------------------------
      1. B(C   6,N   2)                  1.4004         0.538533   
      2. B(C   7,N   2)                  1.4833         0.397277   
      3. B(C   8,S   0)                  1.7347         0.474847   
      4. B(C   8,C   6)                  1.3526         0.716799   
      5. B(C   9,C   8)                  1.4933         0.427550   
      6. B(C  10,C   7)                  1.4752         0.456885   
      7. B(C  11,S   0)                  1.6861         0.567594   
      8. B(C  11,N   2)                  1.3101         0.750549   
      9. B(C  12,C   6)                  1.4892         0.433926   
     10. B(C  13,C   9)                  1.5125         0.398316   
     11. B(C  13,O   1)                  1.4092         0.521482   
     12. B(C  14,C  10)                  1.4109         0.578555   
     13. B(C  14,N   5)                  1.3745         0.592421   
     14. B(C  14,N   3)                  1.3313         0.694340   
     15. B(C  15,N   4)                  1.3227         0.716495   
     16. B(C  15,C  10)                  1.3916         0.621179   
     17. B(C  16,N   4)                  1.3447         0.660995   
     18. B(C  16,N   3)                  1.3329         0.690290   
     19. B(C  17,C  16)                  1.4992         0.418279   
     20. B(H  18,C   7)                  1.0920         0.357477   
     21. B(H  19,C   7)                  1.0907         0.359119   
     22. B(H  20,C   9)                  1.0924         0.356980   
     23. B(H  21,C   9)                  1.0939         0.354944   
     24. B(H  22,C  11)                  1.0761         0.378968   
     25. B(H  23,C  12)                  1.0915         0.358180   
     26. B(H  24,C  12)                  1.0910         0.358750   
     27. B(H  25,C  12)                  1.0860         0.365486   
     28. B(H  26,C  13)                  1.0983         0.349298   
     29. B(H  27,C  13)                  1.0984         0.349155   
     30. B(H  28,C  15)                  1.0911         0.358645   
     31. B(H  29,N   5)                  1.0098         0.433012   
     32. B(H  30,N   5)                  1.0066         0.438135   
     33. B(H  31,O   1)                  0.9642         0.512013   
     34. B(H  32,C  17)                  1.0882         0.362506   
     35. B(H  33,C  17)                  1.0903         0.359661   
     36. B(H  34,C  17)                  1.0931         0.356039   
     37. A(C   8,S   0,C  11)           90.3100         0.453700   
     38. A(C  13,O   1,H  31)          110.5354         0.358378   
     39. A(C   6,N   2,C  11)          113.1039         0.432290   
     40. A(C   7,N   2,C  11)          124.4394         0.409448   
     41. A(C   6,N   2,C   7)          122.4547         0.386254   
     42. A(C  14,N   3,C  16)          119.5891         0.445790   
     43. A(C  15,N   4,C  16)          117.4898         0.444826   
     44. A(C  14,N   5,H  29)          113.6142         0.355948   
     45. A(C  14,N   5,H  30)          117.7485         0.356660   
     46. A(H  29,N   5,H  30)          114.6021         0.303897   
     47. A(C   8,C   6,C  12)          128.2129         0.417917   
     48. A(N   2,C   6,C  12)          119.6025         0.394766   
     49. A(N   2,C   6,C   8)          112.1827         0.431553   
     50. A(C  10,C   7,H  19)          110.9780         0.335137   
     51. A(N   2,C   7,H  19)          106.8959         0.325509   
     52. A(C  10,C   7,H  18)          112.9105         0.334882   
     53. A(N   2,C   7,C  10)          111.9362         0.377771   
     54. A(H  18,C   7,H  19)          108.1187         0.290381   
     55. A(N   2,C   7,H  18)          105.6588         0.325263   
     56. A(S   0,C   8,C   6)          110.7309         0.448261   
     57. A(C   6,C   8,C   9)          127.5215         0.416816   
     58. A(S   0,C   8,C   9)          121.7044         0.408608   
     59. A(C   8,C   9,C  13)          112.5602         0.375996   
     60. A(C  13,C   9,H  20)          110.2833         0.327289   
     61. A(H  20,C   9,H  21)          107.5160         0.289786   
     62. A(C   8,C   9,H  21)          108.8456         0.330827   
     63. A(C   8,C   9,H  20)          109.2362         0.331140   
     64. A(C  13,C   9,H  21)          108.2577         0.326981   
     65. A(C  14,C  10,C  15)          115.6806         0.428851   
     66. A(C   7,C  10,C  15)          122.3182         0.411166   
     67. A(C   7,C  10,C  14)          121.9885         0.406024   
     68. A(S   0,C  11,N   2)          113.6711         0.463871   
     69. A(N   2,C  11,H  22)          122.0128         0.365483   
     70. A(S   0,C  11,H  22)          124.3072         0.369065   
     71. A(H  23,C  12,H  25)          108.4108         0.291274   
     72. A(H  24,C  12,H  25)          108.6677         0.291347   
     73. A(C   6,C  12,H  25)          109.9499         0.333251   
     74. A(H  23,C  12,H  24)          108.4183         0.290424   
     75. A(C   6,C  12,H  24)          110.6483         0.332225   
     76. A(C   6,C  12,H  23)          110.6818         0.332137   
     77. A(O   1,C  13,C   9)          107.7112         0.386722   
     78. A(H  26,C  13,H  27)          107.1872         0.288057   
     79. A(C   9,C  13,H  27)          109.0896         0.326097   
     80. A(O   1,C  13,H  27)          111.7928         0.338932   
     81. A(C   9,C  13,H  26)          110.3768         0.326119   
     82. A(O   1,C  13,H  26)          110.6895         0.338955   
     83. A(N   3,C  14,N   5)          117.7346         0.433655   
     84. A(N   5,C  14,C  10)          121.5983         0.422457   
     85. A(N   3,C  14,C  10)          120.4907         0.434656   
     86. A(C  10,C  15,H  28)          119.8508         0.352781   
     87. A(N   4,C  15,H  28)          116.9211         0.359201   
     88. A(N   4,C  15,C  10)          123.2270         0.442769   
     89. A(N   4,C  16,C  17)          118.1223         0.406629   
     90. A(N   3,C  16,C  17)          118.3688         0.409762   
     91. A(N   3,C  16,N   4)          123.5071         0.441838   
     92. A(H  33,C  17,H  34)          107.8784         0.290266   
     93. A(H  32,C  17,H  34)          109.2488         0.290626   
     94. A(C  16,C  17,H  34)          108.7919         0.329798   
     95. A(H  32,C  17,H  33)          110.7440         0.291088   
     96. A(C  16,C  17,H  33)          109.8070         0.330350   
     97. A(C  16,C  17,H  32)          110.3116         0.330781   
     98. D(C  12,C   6,N   2,C   7)     -0.9491         0.023066   
     99. D(C  12,C   6,N   2,C  11)    179.5368         0.023066   
    100. D(C   8,C   6,N   2,C  11)     -0.0134         0.023066   
    101. D(C   8,C   6,N   2,C   7)    179.5007         0.023066   
    102. D(H  19,C   7,N   2,C   6)    -60.7637         0.013479   
    103. D(C  10,C   7,N   2,C  11)     -3.0204         0.013479   
    104. D(H  18,C   7,N   2,C  11)   -126.3012         0.013479   
    105. D(C  10,C   7,N   2,C   6)    177.5214         0.013479   
    106. D(H  18,C   7,N   2,C   6)     54.2406         0.013479   
    107. D(C   9,C   8,C   6,N   2)    177.3849         0.036336   
    108. D(S   0,C   8,C   6,N   2)     -0.2342         0.036336   
    109. D(S   0,C   8,C   6,C  12)   -179.7365         0.036336   
    110. D(C   9,C   8,C   6,C  12)     -2.1173         0.036336   
    111. D(C   6,C   8,S   0,C  11)      0.3191         0.004825   
    112. D(C   9,C   8,S   0,C  11)   -177.4615         0.004825   
    113. D(H  21,C   9,C   8,S   0)     76.5028         0.013504   
    114. D(H  20,C   9,C   8,C   6)     16.2448         0.013504   
    115. D(H  20,C   9,C   8,S   0)   -166.3727         0.013504   
    116. D(C  13,C   9,C   8,C   6)    139.1026         0.013504   
    117. D(C  13,C   9,C   8,S   0)    -43.5149         0.013504   
    118. D(C  15,C  10,C   7,H  18)   -131.9587         0.015391   
    119. D(C  15,C  10,C   7,N   2)    108.9566         0.015391   
    120. D(C  14,C  10,C   7,H  19)    170.9676         0.015391   
    121. D(C  14,C  10,C   7,H  18)     49.3912         0.015391   
    122. D(C  14,C  10,C   7,N   2)    -69.6934         0.015391   
    123. D(H  22,C  11,N   2,C   6)    179.2237         0.047313   
    124. D(S   0,C  11,N   2,C   7)   -179.2357         0.047313   
    125. D(S   0,C  11,N   2,C   6)      0.2672         0.047313   
    126. D(N   2,C  11,S   0,C   8)     -0.3368         0.006339   
    127. D(H  22,C  11,N   2,C   7)     -0.2792         0.047313   
    128. D(H  22,C  11,S   0,C   8)   -179.2656         0.006339   
    129. D(H  25,C  12,C   6,N   2)    178.1820         0.013901   
    130. D(H  24,C  12,C   6,C   8)   -122.3926         0.013901   
    131. D(H  24,C  12,C   6,N   2)     58.1375         0.013901   
    132. D(H  23,C  12,C   6,C   8)    117.3983         0.013901   
    133. D(H  23,C  12,C   6,N   2)    -62.0716         0.013901   
    134. D(H  26,C  13,C   9,H  21)    178.2233         0.012592   
    135. D(H  26,C  13,C   9,H  20)     60.8489         0.012592   
    136. D(H  26,C  13,C   9,C   8)    -61.4198         0.012592   
    137. D(O   1,C  13,C   9,H  21)    -60.8286         0.012592   
    138. D(O   1,C  13,C   9,H  20)   -178.2030         0.012592   
    139. D(O   1,C  13,C   9,C   8)     59.5283         0.012592   
    140. D(H  27,C  13,O   1,H  31)     50.3839         0.021565   
    141. D(H  26,C  13,O   1,H  31)    -69.0338         0.021565   
    142. D(C   9,C  13,O   1,H  31)    170.2141         0.021565   
    143. D(N   5,C  14,C  10,C   7)      2.3299         0.022992   
    144. D(N   3,C  14,C  10,C  15)     -1.3408         0.022992   
    145. D(N   3,C  14,C  10,C   7)    177.3934         0.022992   
    146. D(C  10,C  14,N   5,H  30)    -33.7492         0.028229   
    147. D(C  10,C  14,N   5,H  29)   -171.7712         0.028229   
    148. D(N   3,C  14,N   5,H  30)    151.0565         0.028229   
    149. D(N   3,C  14,N   5,H  29)     13.0345         0.028229   
    150. D(C  10,C  14,N   3,C  16)      1.5007         0.036048   
    151. D(N   5,C  14,C  10,C  15)   -176.4043         0.022992   
    152. D(N   5,C  14,N   3,C  16)    176.7507         0.036048   
    153. D(H  28,C  15,C  10,C  14)   -179.8166         0.026707   
    154. D(H  28,C  15,C  10,C   7)      1.4538         0.026707   
    155. D(N   4,C  15,C  10,C  14)      0.5686         0.026707   
    156. D(N   4,C  15,C  10,C   7)   -178.1610         0.026707   
    157. D(H  28,C  15,N   4,C  16)   -179.5818         0.038620   
    158. D(C  10,C  15,N   4,C  16)      0.0434         0.038620   
    159. D(C  17,C  16,N   3,C  14)    178.6443         0.035589   
    160. D(N   4,C  16,N   3,C  14)     -0.8632         0.035589   
    161. D(C  17,C  16,N   4,C  15)   -179.4332         0.032381   
    162. D(N   3,C  16,N   4,C  15)      0.0753         0.032381   
    163. D(H  34,C  17,C  16,N   3)   -104.9921         0.012940   
    164. D(H  33,C  17,C  16,N   4)    -43.3122         0.012940   
    165. D(H  33,C  17,C  16,N   3)    137.1535         0.012940   
    166. D(H  32,C  17,C  16,N   4)   -165.6382         0.012940   
    167. D(H  32,C  17,C  16,N   3)     14.8275         0.012940   
    -----------------------------------------------------------------

Number of atoms                         .... 35
Number of degrees of freedom            .... 167


         *************************************************************
         *                GEOMETRY OPTIMIZATION CYCLE   1            *
         *************************************************************
---------------------------------
CARTESIAN COORDINATES (ANGSTROEM)
---------------------------------
  S      1.099256   -2.056085    0.796128
  O      0.988856   -4.561827    1.821776
  N     -0.530702   -0.230789    0.209059
  N      1.818827    3.145114   -1.187065
  N      0.738323    2.567147   -3.202488
  N      1.092120    2.405282    0.883959
  C     -1.262353   -1.118999    1.007190
  C     -1.129130    0.996471   -0.370392
  C     -0.517092   -2.171435    1.415247
  C     -0.934579   -3.286566    2.316371
  C     -0.138563    1.791078   -1.121119
  C      0.711647   -0.605515    0.028882
  C     -2.690184   -0.827247    1.313787
  C     -0.418294   -4.630855    1.853633
  C      0.911125    2.479129   -0.476553
  C     -0.161044    1.888986   -2.509069
  C      1.715188    3.184916   -2.515298
  C      2.734768    3.968400   -3.286212
  H     -1.559858    1.540703    0.472654
  H     -1.944937    0.675414   -1.019315
  H     -2.024534   -3.303392    2.386966
  H     -0.542573   -3.095758    3.319664
  H      1.398356   -0.034531   -0.571446
  H     -2.781570    0.105737    1.872772
  H     -3.270344   -0.736424    0.394279
  H     -3.111754   -1.628802    1.913032
  H     -0.817559   -4.872226    0.859365
  H     -0.772900   -5.408664    2.543383
  H     -0.945417    1.385582   -3.076385
  H      1.792197    3.043246    1.234113
  H      0.272101    2.324472    1.462144
  H      1.367322   -5.437302    1.680462
  H      3.591134    4.197704   -2.655176
  H      3.044064    3.405769   -4.167464
  H      2.278102    4.901267   -3.626883

----------------------------
CARTESIAN COORDINATES (A.U.)
----------------------------
  NO LB      ZA    FRAG     MASS         X           Y           Z
   0 S    16.0000    0    32.060    2.077293   -3.885438    1.504464
   1 O     8.0000    0    15.999    1.868668   -8.620603    3.442658
   2 N     7.0000    0    14.007   -1.002882   -0.436128    0.395065
   3 N     7.0000    0    14.007    3.437084    5.943405   -2.243229
   4 N     7.0000    0    14.007    1.395228    4.851205   -6.051826
   5 N     7.0000    0    14.007    2.063807    4.545323    1.670441
   6 C     6.0000    0    12.011   -2.385502   -2.114602    1.903314
   7 C     6.0000    0    12.011   -2.133747    1.883057   -0.699939
   8 C     6.0000    0    12.011   -0.977163   -4.103417    2.674429
   9 C     6.0000    0    12.011   -1.766098   -6.210710    4.377307
  10 C     6.0000    0    12.011   -0.261846    3.384646   -2.118608
  11 C     6.0000    0    12.011    1.344818   -1.144258    0.054579
  12 C     6.0000    0    12.011   -5.083710   -1.563270    2.482697
  13 C     6.0000    0    12.011   -0.790460   -8.751047    3.502859
  14 C     6.0000    0    12.011    1.721778    4.684875   -0.900555
  15 C     6.0000    0    12.011   -0.304329    3.569666   -4.741454
  16 C     6.0000    0    12.011    3.241236    6.018620   -4.753225
  17 C     6.0000    0    12.011    5.167962    7.499189   -6.210041
  18 H     1.0000    0     1.008   -2.947705    2.911507    0.893187
  19 H     1.0000    0     1.008   -3.675398    1.276347   -1.926225
  20 H     1.0000    0     1.008   -3.825815   -6.242507    4.510712
  21 H     1.0000    0     1.008   -1.025314   -5.850135    6.273257
  22 H     1.0000    0     1.008    2.642511   -0.065254   -1.079877
  23 H     1.0000    0     1.008   -5.256405    0.199814    3.539026
  24 H     1.0000    0     1.008   -6.180055   -1.391640    0.745079
  25 H     1.0000    0     1.008   -5.880363   -3.077989    3.615106
  26 H     1.0000    0     1.008   -1.544962   -9.207172    1.623964
  27 H     1.0000    0     1.008   -1.460568  -10.220894    4.806297
  28 H     1.0000    0     1.008   -1.786579    2.618371   -5.813526
  29 H     1.0000    0     1.008    3.386761    5.750902    2.332136
  30 H     1.0000    0     1.008    0.514197    4.392615    2.763052
  31 H     1.0000    0     1.008    2.583863  -10.275012    3.175613
  32 H     1.0000    0     1.008    6.786260    7.932511   -5.017555
  33 H     1.0000    0     1.008    5.752447    6.435971   -7.875366
  34 H     1.0000    0     1.008    4.304990    9.262051   -6.853815

--------------------------------
INTERNAL COORDINATES (ANGSTROEM)
--------------------------------
 S      0   0   0     0.000000000000     0.00000000     0.00000000
 O      1   0   0     2.709775541857     0.00000000     0.00000000
 N      1   2   0     2.516569271520   137.10545640     0.00000000
 N      3   1   2     4.343520809612   106.75986444   177.56142688
 N      4   3   1     2.358699766487    80.58429717   112.76214606
 N      4   3   1     2.316160296718    45.13891298   272.84174101
 C      3   1   2     1.400444038599    75.25090773    14.60171356
 C      3   1   2     1.483254913817   162.28433595   196.41940377
 C      7   3   1     1.352606737623   112.18271075     0.15613853
 C      9   7   3     1.493264214664   127.52152230   177.38489633
 C      8   3   1     1.475200071784   111.93619405   355.43818218
 C      3   1   2     1.310082257337    37.85337603   194.34753429
 C      7   3   1     1.489234698216   119.60254646   179.70633005
 C      2   1   3     1.409202245427    95.42450595     4.82494540
 C      4   3   1     1.331272125517    21.69163786   231.10768561
 C      5   4   3     1.322722145122    89.37909963    18.30390274
 C      4   3   1     1.332864546460   107.54526912   103.78625653
 C     17   4   3     1.499232037381   118.36879176   198.40010767
 H      8   3   1     1.091990160369   105.65881036   232.15736411
 H      8   3   1     1.090742554611   106.89587036   117.15301721
 H     10   9   7     1.092368793672   109.23623262    16.24481820
 H     10   9   7     1.093926093260   108.84560478   259.12027568
 H     12   3   1     1.076098295756   122.01280764   178.95647026
 H     13   7   3     1.091455394434   110.68179564   297.92837276
 H     13   7   3     1.091022626234   110.64831130    58.13746635
 H     13   7   3     1.085958363934   109.94991115   178.18200286
 H     14   2   1     1.098290914785   110.68950978    80.23135258
 H     14   2   1     1.098402038246   111.79276840   199.64914232
 H     16   5   4     1.091101863995   116.92113911   180.45365953
 H      6   4   3     1.009808812141    83.72698901   164.06719707
 H      6   4   3     1.006607229597   142.63986448   287.17434018
 H      2   1   3     0.964190442498   140.18867362   136.45142340
 H     18  17   4     1.088186963191   110.31156292    14.82749048
 H     18  17   4     1.090331720571   109.80699248   137.15352916
 H     18  17   4     1.093087090174   108.79189109   255.00789250

---------------------------
INTERNAL COORDINATES (A.U.)
---------------------------
 S      0   0   0     0.000000000000     0.00000000     0.00000000
 O      1   0   0     5.120733658508     0.00000000     0.00000000
 N      1   2   0     4.755626720215   137.10545640     0.00000000
 N      3   1   2     8.208064787155   106.75986444   177.56142688
 N      4   3   1     4.457296590805    80.58429717   112.76214606
 N      4   3   1     4.376908643060    45.13891298   272.84174101
 C      3   1   2     2.646455698835    75.25090773    14.60171356
 C      3   1   2     2.802945573906   162.28433595   196.41940377
 C      7   3   1     2.556056301004   112.18271075     0.15613853
 C      9   7   3     2.821860411300   127.52152230   177.38489633
 C      8   3   1     2.787724128413   111.93619405   355.43818218
 C      3   1   2     2.475696679276    37.85337603   194.34753429
 C      7   3   1     2.814245728761   119.60254646   179.70633005
 C      2   1   3     2.663006311164    95.42450595     4.82494540
 C      4   3   1     2.515739726950    21.69163786   231.10768561
 C      5   4   3     2.499582605554    89.37909963    18.30390274
 C      4   3   1     2.518748966423   107.54526912   103.78625653
 C     17   4   3     2.833137961852   118.36879176   198.40010767
 H      8   3   1     2.063562344035   105.65881036   232.15736411
 H      8   3   1     2.061204710829   106.89587036   117.15301721
 H     10   9   7     2.064277857283   109.23623262    16.24481820
 H     10   9   7     2.067220727011   108.84560478   259.12027568
 H     12   3   1     2.033531072158   122.01280764   178.95647026
 H     13   7   3     2.062551782871   110.68179564   297.92837276
 H     13   7   3     2.061733969494   110.64831130    58.13746635
 H     13   7   3     2.052163900677   109.94991115   178.18200286
 H     14   2   1     2.075469044318   110.68950978    80.23135258
 H     14   2   1     2.075679037225   111.79276840   199.64914232
 H     16   5   4     2.061883707162   116.92113911   180.45365953
 H      6   4   3     1.908262102566    83.72698901   164.06719707
 H      6   4   3     1.902211988363   142.63986448   287.17434018
 H      2   1   3     1.822055877265   140.18867362   136.45142340
 H     18  17   4     2.056375342934   110.31156292    14.82749048
 H     18  17   4     2.060428347007   109.80699248   137.15352916
 H     18  17   4     2.065635240953   108.79189109   255.00789250

---------------------
BASIS SET INFORMATION
---------------------
There are 5 groups of distinct atoms

 Group   1 Type S   : 14s9p1d contracted to 5s4p1d pattern {73211/6111/1}
 Group   2 Type O   : 11s6p2d contracted to 5s3p2d pattern {62111/411/11}
 Group   3 Type N   : 11s6p1d contracted to 5s3p1d pattern {62111/411/1}
 Group   4 Type C   : 11s6p1d contracted to 5s3p1d pattern {62111/411/1}
 Group   5 Type H   : 5s contracted to 3s pattern {311}

Atom   0S    basis set group =>   1
Atom   1O    basis set group =>   2
Atom   2N    basis set group =>   3
Atom   3N    basis set group =>   3
Atom   4N    basis set group =>   3
Atom   5N    basis set group =>   3
Atom   6C    basis set group =>   4
Atom   7C    basis set group =>   4
Atom   8C    basis set group =>   4
Atom   9C    basis set group =>   4
Atom  10C    basis set group =>   4
Atom  11C    basis set group =>   4
Atom  12C    basis set group =>   4
Atom  13C    basis set group =>   4
Atom  14C    basis set group =>   4
Atom  15C    basis set group =>   4
Atom  16C    basis set group =>   4
Atom  17C    basis set group =>   4
Atom  18H    basis set group =>   5
Atom  19H    basis set group =>   5
Atom  20H    basis set group =>   5
Atom  21H    basis set group =>   5
Atom  22H    basis set group =>   5
Atom  23H    basis set group =>   5
Atom  24H    basis set group =>   5
Atom  25H    basis set group =>   5
Atom  26H    basis set group =>   5
Atom  27H    basis set group =>   5
Atom  28H    basis set group =>   5
Atom  29H    basis set group =>   5
Atom  30H    basis set group =>   5
Atom  31H    basis set group =>   5
Atom  32H    basis set group =>   5
Atom  33H    basis set group =>   5
Atom  34H    basis set group =>   5
---------------------------------
AUXILIARY/J BASIS SET INFORMATION
---------------------------------
There are 5 groups of distinct atoms

 Group   1 Type S   : 14s5p5d2f1g contracted to 8s4p3d1f1g pattern {71111111/2111/311/2/1}
 Group   2 Type O   : 8s3p3d contracted to 6s3p3d pattern {311111/111/111}
 Group   3 Type N   : 8s3p3d contracted to 6s3p3d pattern {311111/111/111}
 Group   4 Type C   : 8s3p3d contracted to 6s3p3d pattern {311111/111/111}
 Group   5 Type H   : 5s2p contracted to 3s1p pattern {311/2}

Atom   0S    basis set group =>   1
Atom   1O    basis set group =>   2
Atom   2N    basis set group =>   3
Atom   3N    basis set group =>   3
Atom   4N    basis set group =>   3
Atom   5N    basis set group =>   3
Atom   6C    basis set group =>   4
Atom   7C    basis set group =>   4
Atom   8C    basis set group =>   4
Atom   9C    basis set group =>   4
Atom  10C    basis set group =>   4
Atom  11C    basis set group =>   4
Atom  12C    basis set group =>   4
Atom  13C    basis set group =>   4
Atom  14C    basis set group =>   4
Atom  15C    basis set group =>   4
Atom  16C    basis set group =>   4
Atom  17C    basis set group =>   4
Atom  18H    basis set group =>   5
Atom  19H    basis set group =>   5
Atom  20H    basis set group =>   5
Atom  21H    basis set group =>   5
Atom  22H    basis set group =>   5
Atom  23H    basis set group =>   5
Atom  24H    basis set group =>   5
Atom  25H    basis set group =>   5
Atom  26H    basis set group =>   5
Atom  27H    basis set group =>   5
Atom  28H    basis set group =>   5
Atom  29H    basis set group =>   5
Atom  30H    basis set group =>   5
Atom  31H    basis set group =>   5
Atom  32H    basis set group =>   5
Atom  33H    basis set group =>   5
Atom  34H    basis set group =>   5


           ************************************************************
           *        Program running with 16 parallel MPI-processes    *
           *              working on a common directory               *
           ************************************************************
------------------------------------------------------------------------------
                             ORCA STARTUP CALCULATIONS
                           -- RI-GTO INTEGRALS CHOSEN --
------------------------------------------------------------------------------
------------------------------------------------------------------------------
                   ___                                                        
                  /   \      - P O W E R E D   B Y -                         
                 /     \                                                     
                 |  |  |   _    _      __       _____    __    __             
                 |  |  |  | |  | |    /  \     |  _  \  |  |  /  |          
                  \  \/   | |  | |   /    \    | | | |  |  | /  /          
                 / \  \   | |__| |  /  /\  \   | |_| |  |  |/  /          
                |  |  |   |  __  | /  /__\  \  |    /   |      \           
                |  |  |   | |  | | |   __   |  |    \   |  |\   \          
                \     /   | |  | | |  |  |  |  | |\  \  |  | \   \       
                 \___/    |_|  |_| |__|  |__|  |_| \__\ |__|  \__/        
                                                                              
                      - O R C A' S   B I G   F R I E N D -                    
                                      &                                       
                       - I N T E G R A L  F E E D E R -                       
                                                                              
 v1 FN, 2020, v2 2021, v3 2022-2024                                           
------------------------------------------------------------------------------


----------------------
SHARK INTEGRAL PACKAGE
----------------------

Number of atoms                             ...     35
Number of basis functions                   ...    401
Number of shells                            ...    215
Maximum angular momentum                    ...      2
Integral batch strategy                     ... SHARK/LIBINT Hybrid
RI-J (if used) integral strategy            ... SPLIT-RIJ (Revised 2003 algorithm where possible)
Printlevel                                  ...      1
Contraction scheme used                     ... SEGMENTED contraction
Prescreening option                         ... SCHWARTZ
   Thresh                                   ... 2.500e-11
   Tcut                                     ... 2.500e-12
   Tpresel                                  ... 2.500e-12 
Coulomb Range Separation                    ... NOT USED
Exchange Range Separation                   ... NOT USED
Multipole approximations                    ... NOT USED
Finite Nucleus Model                        ... NOT USED
CABS basis                                  ... NOT available
Auxiliary Coulomb fitting basis             ... AVAILABLE
   # of basis functions in Aux-J            ...    663
   # of shells in Aux-J                     ...    289
   Maximum angular momentum in Aux-J        ...      4
Auxiliary J/K fitting basis                 ... NOT available
Auxiliary Correlation fitting basis         ... NOT available
Auxiliary 'external' fitting basis          ... NOT available

Checking pre-screening integrals            ... done (  0.0 sec) Dimension = 215
Check shell pair data                       ... done (  0.0 sec)
Shell pair information
Shell pair cut-off parameter TPreSel        ...   2.5e-12
Total number of shell pairs                 ...     23220
Shell pairs after pre-screening             ...     17006
Total number of primitive shell pairs       ...     87201
Primitive shell pairs kept                  ...     40787
          la=0 lb=0:   6839 shell pairs
          la=1 lb=0:   6086 shell pairs
          la=1 lb=1:   1332 shell pairs
          la=2 lb=0:   1799 shell pairs
          la=2 lb=1:    818 shell pairs
          la=2 lb=2:    132 shell pairs

Calculating one electron integrals          ... done (  0.0 sec)
Calculating RI/J V-Matrix + Cholesky decomp.... done (  0.0 sec)
Calculating Nuclear repulsion               ... done (  0.0 sec) ENN=   1457.914677781704 Eh

Diagonalization of the overlap matrix:
Smallest eigenvalue                        ... 5.318e-05
Time for diagonalization                   ...    0.014 sec
Threshold for overlap eigenvalues          ... 1.000e-07
Number of eigenvalues below threshold      ... 0
Time for construction of square roots      ...    0.007 sec
Total time needed                          ...    0.023 sec

-------------------
DFT GRID GENERATION
-------------------

General Integration Accuracy     IntAcc      ... 4.959
Radial Grid Type                 RadialGrid  ... OptM3 with GC (2021)
Angular Grid (max. ang.)         AngularGrid ... 6 (Lebedev-590)
Angular grid pruning method      GridPruning ... 4 (adaptive)
Weight generation scheme         WeightScheme... mBecke (2022)
Basis function cutoff            BFCut       ... 1.0000e-11
Integration weight cutoff        WCut        ... 1.0000e-14
Partially contracted basis set               ... off
Rotationally invariant grid construction     ... off
Angular grids for H and He will be reduced by one unit
Diffuse basis detected: some atoms will have their outermost
                        angular grid increased by 1.

Total number of grid points                  ...   403601
Total number of batches                      ...     6324
Average number of points per batch           ...       63
Average number of grid points per atom       ...    11531
Initializing property integral containers    ... done (  0.0 sec)

SHARK setup successfully completed in   3.3 seconds

Maximum memory used throughout the entire STARTUP-calculation: 92.8 MB


           ************************************************************
           *        Program running with 16 parallel MPI-processes    *
           *              working on a common directory               *
           ************************************************************
-------------------------------------------------------------------------------
                                 ORCA GUESS
                   Start orbitals & Density for SCF / CASSCF
-------------------------------------------------------------------------------

------------
SCF SETTINGS
------------
Hamiltonian:
 Density Functional     Method          .... DFT(GTOs)
 Exchange Functional    Exchange        .... B973C
 Correlation Functional Correlation     .... B973C
 Gradients option       PostSCFGGA      .... off
 RI-approximation to the Coulomb term is turned on
   Number of AuxJ basis functions       .... 663


General Settings:
 Integral files         IntName         .... m1_01_Vitamin_B1-QM3_06-B97-3C-TZ
 Hartree-Fock type      HFTyp           .... RHF
 Total Charge           Charge          ....    1
 Multiplicity           Mult            ....    1
 Number of Electrons    NEL             ....  140
 Basis Dimension        Dim             ....  401
 Nuclear Repulsion      ENuc            ....   1457.9146777817 Eh

Convergence Acceleration:
 AO-DIIS                CNVDIIS         .... on
   Start iteration      DIISMaxIt       ....    12
   Startup error        DIISStart       ....  0.200000
   # of expansion vecs  DIISMaxEq       ....     5
   Bias factor          DIISBfac        ....   1.050
   Max. coefficient     DIISMaxC        ....  10.000
 MO-DIIS                CNVKDIIS        .... off
 Trust-Rad. Augm. Hess. CNVTRAH         .... off
 SOSCF                  CNVSOSCF        .... on
   Start iteration      SOSCFMaxIt      ....   150
   Startup grad/error   SOSCFStart      ....  0.003300
   Hessian update       SOSCFHessUp     .... L-BFGS
 Level Shifting         CNVShift        .... on
   Level shift para.    LevelShift      ....    0.2500
   Turn off err/grad.   ShiftErr        ....    0.0010
 Zerner damping         CNVZerner       .... off
 Static damping         CNVDamp         .... on
   Fraction old density DampFac         ....    0.7000
   Max. Damping (<1)    DampMax         ....    0.9800
   Min. Damping (>=0)   DampMin         ....    0.0000
   Turn off err/grad.   DampErr         ....    0.1000

SCF Procedure:
 Maximum # iterations   MaxIter         ....   800
 SCF integral mode      SCFMode         .... Direct
   Integral package                     .... SHARK and LIBINT hybrid scheme
 Reset frequency        DirectResetFreq ....    20
 Integral Threshold     Thresh          ....  2.500e-11 Eh
 Primitive CutOff       TCut            ....  2.500e-12 Eh

Convergence Tolerance:
 Convergence Check Mode ConvCheckMode   .... Total+1el-Energy
 Convergence forced     ConvForced      .... 0
 Energy Change          TolE            ....  1.000e-08 Eh
 1-El. energy change                    ....  1.000e-05 Eh
 Orbital Gradient       TolG            ....  1.000e-05
 Orbital Rotation angle TolX            ....  1.000e-05
 DIIS Error             TolErr          ....  5.000e-07

--------------------------------
INITIAL GUESS: MINIMAL BASIS EHT
--------------------------------
The minimal basis has 111 functions
EHT matrix was diagonalized
Basis set overlap was calculated now projecting the orbitals
Using GuessMode=FMatrix for the initial guess
C*T matrix was formed
Effective Fockian was calculated
Effective Fockian was diagonalized
Initial density was built
                      ------------------
                      INITIAL GUESS DONE
                      ------------------
             **** ENERGY FILE WAS UPDATED (m1_01_Vitamin_B1-QM3_06-B97-3C-TZ.en.tmp) ****
Finished Guess after   0.2 sec
Maximum memory used throughout the entire GUESS-calculation: 31.5 MB


           ************************************************************
           *        Program running with 16 parallel MPI-processes    *
           *              working on a common directory               *
           ************************************************************

-------------------------------------------------------------------------------------------
                                      ORCA LEAN-SCF
                              memory conserving SCF solver
-------------------------------------------------------------------------------------------

----------------------------------------D-I-I-S--------------------------------------------
Iteration    Energy (Eh)           Delta-E    RMSDP     MaxDP     DIISErr   Damp  Time(sec)
-------------------------------------------------------------------------------------------
               ***  Starting incremental Fock matrix formation  ***
    1    -1156.3918672629995399     0.00e+00  4.76e-03  1.94e-01  8.23e-01  0.700   0.6
Warning: op=0 Small HOMO/LUMO gap (  -0.039) - skipping pre-diagonalization
         Will do a full diagonalization
    2    -1157.3456323835277999    -9.54e-01  4.70e-03  2.50e-01  5.61e-01  0.700   0.6
    3    -1157.8870089264421495    -5.41e-01  2.57e-03  1.08e-01  3.80e-01  0.700   0.6
    4    -1158.2504087552067631    -3.63e-01  1.64e-03  6.02e-02  2.57e-01  0.700   0.6
                               ***Turning on AO-DIIS***
    5    -1158.5090577026815026    -2.59e-01  1.32e-03  5.17e-02  1.73e-01  0.700   0.6
    6    -1158.6895484880603817    -1.80e-01  9.35e-04  4.31e-02  1.21e-01  0.700   0.6
    7    -1158.8160664713730057    -1.27e-01  6.20e-04  3.18e-02  8.49e-02  0.700   0.6
    8    -1158.9049407275072099    -8.89e-02  1.42e-03  7.22e-02  5.99e-02  0.000   0.6
    9    -1159.1120322117888009    -2.07e-01  1.93e-04  1.09e-02  7.72e-03  0.000   0.6
   10    -1159.1123027965707024    -2.71e-04  5.64e-05  1.90e-03  4.82e-03  0.000   0.6
                              *** Initializing SOSCF ***
---------------------------------------S-O-S-C-F--------------------------------------
Iteration    Energy (Eh)           Delta-E    RMSDP     MaxDP     MaxGrad    Time(sec)
--------------------------------------------------------------------------------------
   11    -1159.1124155751915623    -1.13e-04  2.74e-05  1.71e-03  1.04e-03     0.6
               *** Restarting incremental Fock matrix formation ***
   12    -1159.1124284530071691    -1.29e-05  4.65e-05  2.09e-03  4.29e-04     0.6
   13    -1159.1124294355588518    -9.83e-07  2.97e-05  1.92e-03  3.10e-04     0.5
   14    -1159.1124329162914819    -3.48e-06  1.87e-05  8.54e-04  1.38e-04     0.5
   15    -1159.1124333012564875    -3.85e-07  8.59e-06  4.23e-04  1.29e-04     0.5
   16    -1159.1124335532329042    -2.52e-07  8.24e-06  2.74e-04  8.43e-05     0.5
   17    -1159.1124337049370752    -1.52e-07  6.02e-06  3.88e-04  3.28e-05     0.5
   18    -1159.1124336753630359     2.96e-08  4.13e-06  2.06e-04  4.02e-05     0.5
   19    -1159.1124337488593028    -7.35e-08  2.52e-06  1.23e-04  1.29e-05     0.5
   20    -1159.1124337542958074    -5.44e-09  2.52e-06  1.94e-04  1.14e-05     0.5
                 **** Energy Check signals convergence ****

               *****************************************************
               *                     SUCCESS                       *
               *           SCF CONVERGED AFTER  20 CYCLES          *
               *****************************************************

             **** ENERGY FILE WAS UPDATED (m1_01_Vitamin_B1-QM3_06-B97-3C-TZ.en.tmp) ****

----------------
TOTAL SCF ENERGY
----------------

Total Energy       :      -1159.11243375429581 Eh          -31541.05284 eV

Components:
Nuclear Repulsion  :       1457.91467778170386 Eh           39671.87526 eV
Electronic Energy  :      -2617.02711153600012 Eh          -71212.92810 eV
One Electron Energy:      -4460.70042519260278 Eh         -121381.82950 eV
Two Electron Energy:       1843.67331365660289 Eh           50168.90140 eV

Virial components:
Potential Energy   :      -2314.72810472507172 Eh          -62986.95392 eV
Kinetic Energy     :       1155.61567097077614 Eh           31445.90109 eV
Virial Ratio       :          2.00302588730091

DFT components:
N(Alpha)           :       70.000002130934 electrons
N(Beta)            :       70.000002130934 electrons
N(Total)           :      140.000004261867 electrons
E(XC)              :     -132.606856906195 Eh       

---------------
SCF CONVERGENCE
---------------

  Last Energy change         ...    5.4365e-09  Tolerance :   1.0000e-08
  Last MAX-Density change    ...    1.9422e-04  Tolerance :   1.0000e-07
  Last RMS-Density change    ...    2.5191e-06  Tolerance :   5.0000e-09
  Last DIIS Error            ...    1.0439e-03  Tolerance :   5.0000e-07
  Last Orbital Gradient      ...    1.1397e-05  Tolerance :   1.0000e-05
  Last Orbital Rotation      ...    6.2631e-05  Tolerance :   1.0000e-05


----------------
ORBITAL ENERGIES
----------------

  NO   OCC          E(Eh)            E(eV) 
   0   2.0000     -88.231143     -2400.8915 
   1   2.0000     -18.878055      -513.6980 
   2   2.0000     -14.234428      -387.3385 
   3   2.0000     -14.134098      -384.6084 
   4   2.0000     -14.092578      -383.4785 
   5   2.0000     -14.085219      -383.2783 
   6   2.0000     -10.126411      -275.5537 
   7   2.0000     -10.101428      -274.8738 
   8   2.0000     -10.101264      -274.8694 
   9   2.0000     -10.096062      -274.7278 
  10   2.0000     -10.090458      -274.5753 
  11   2.0000     -10.071919      -274.0709 
  12   2.0000     -10.069241      -273.9980 
  13   2.0000     -10.054620      -273.6001 
  14   2.0000     -10.046906      -273.3902 
  15   2.0000     -10.045563      -273.3537 
  16   2.0000     -10.033987      -273.0387 
  17   2.0000      -9.975195      -271.4389 
  18   2.0000      -7.920815      -215.5363 
  19   2.0000      -5.951284      -161.9427 
  20   2.0000      -5.945286      -161.7795 
  21   2.0000      -5.943209      -161.7229 
  22   2.0000      -1.108535       -30.1648 
  23   2.0000      -1.078689       -29.3526 
  24   2.0000      -1.032931       -28.1075 
  25   2.0000      -0.979179       -26.6448 
  26   2.0000      -0.945934       -25.7402 
  27   2.0000      -0.911366       -24.7995 
  28   2.0000      -0.894791       -24.3485 
  29   2.0000      -0.873395       -23.7663 
  30   2.0000      -0.837246       -22.7826 
  31   2.0000      -0.808393       -21.9975 
  32   2.0000      -0.787132       -21.4189 
  33   2.0000      -0.758963       -20.6524 
  34   2.0000      -0.731804       -19.9134 
  35   2.0000      -0.713022       -19.4023 
  36   2.0000      -0.690764       -18.7967 
  37   2.0000      -0.672851       -18.3092 
  38   2.0000      -0.665956       -18.1216 
  39   2.0000      -0.638733       -17.3808 
  40   2.0000      -0.627052       -17.0630 
  41   2.0000      -0.610908       -16.6236 
  42   2.0000      -0.600493       -16.3402 
  43   2.0000      -0.588601       -16.0166 
  44   2.0000      -0.572858       -15.5883 
  45   2.0000      -0.562179       -15.2977 
  46   2.0000      -0.559284       -15.2189 
  47   2.0000      -0.544105       -14.8059 
  48   2.0000      -0.531844       -14.4722 
  49   2.0000      -0.525004       -14.2861 
  50   2.0000      -0.519284       -14.1304 
  51   2.0000      -0.514742       -14.0068 
  52   2.0000      -0.507711       -13.8155 
  53   2.0000      -0.502119       -13.6634 
  54   2.0000      -0.496474       -13.5097 
  55   2.0000      -0.491923       -13.3859 
  56   2.0000      -0.476602       -12.9690 
  57   2.0000      -0.473993       -12.8980 
  58   2.0000      -0.462751       -12.5921 
  59   2.0000      -0.456812       -12.4305 
  60   2.0000      -0.437375       -11.9016 
  61   2.0000      -0.429572       -11.6892 
  62   2.0000      -0.422798       -11.5049 
  63   2.0000      -0.415688       -11.3114 
  64   2.0000      -0.376572       -10.2470 
  65   2.0000      -0.371447       -10.1076 
  66   2.0000      -0.363726        -9.8975 
  67   2.0000      -0.359875        -9.7927 
  68   2.0000      -0.334751        -9.1090 
  69   2.0000      -0.312528        -8.5043 
  70   0.0000      -0.223121        -6.0714 
  71   0.0000      -0.174089        -4.7372 
  72   0.0000      -0.166369        -4.5271 
  73   0.0000      -0.163158        -4.4398 
  74   0.0000      -0.149968        -4.0808 
  75   0.0000      -0.127723        -3.4755 
  76   0.0000      -0.102539        -2.7902 
  77   0.0000      -0.088293        -2.4026 
  78   0.0000      -0.077146        -2.0993 
  79   0.0000      -0.073296        -1.9945 
  80   0.0000      -0.068070        -1.8523 
*Only the first 10 virtual orbitals were printed.

                    ********************************
                    * MULLIKEN POPULATION ANALYSIS *
                    ********************************

-----------------------
MULLIKEN ATOMIC CHARGES
-----------------------
   0 S :    0.307535
   1 O :   -0.576372
   2 N :    0.073131
   3 N :   -0.140377
   4 N :   -0.084298
   5 N :   -0.584961
   6 C :   -0.051526
   7 C :   -0.692391
   8 C :   -0.042245
   9 C :   -0.253340
  10 C :    0.123479
  11 C :   -0.103011
  12 C :   -0.478903
  13 C :   -0.187488
  14 C :    0.126037
  15 C :   -0.116214
  16 C :    0.104552
  17 C :   -0.547399
  18 H :    0.258216
  19 H :    0.248132
  20 H :    0.194676
  21 H :    0.219440
  22 H :    0.284265
  23 H :    0.205071
  24 H :    0.202346
  25 H :    0.200443
  26 H :    0.176635
  27 H :    0.195577
  28 H :    0.177115
  29 H :    0.366211
  30 H :    0.342495
  31 H :    0.453908
  32 H :    0.198432
  33 H :    0.196782
  34 H :    0.204044
Sum of atomic charges:    1.0000000

--------------------------------
MULLIKEN REDUCED ORBITAL CHARGES
--------------------------------
  0 S s       :     5.886396  s :     5.886396
      pz      :     3.295794  p :     9.679627
      px      :     3.235849
      py      :     3.147984
      dz2     :     0.019384  d :     0.126442
      dxz     :     0.020952
      dyz     :     0.022122
      dx2y2   :     0.043192
      dxy     :     0.020792

  1 O s       :     3.813366  s :     3.813366
      pz      :     1.898478  p :     4.733553
      px      :     1.293075
      py      :     1.542000
      dz2     :     0.004890  d :     0.029453
      dxz     :     0.001753
      dyz     :     0.004035
      dx2y2   :     0.012951
      dxy     :     0.005824

  2 N s       :     3.265978  s :     3.265978
      pz      :     1.298986  p :     3.603417
      px      :     1.119883
      py      :     1.184548
      dz2     :     0.007966  d :     0.057474
      dxz     :     0.011432
      dyz     :     0.008509
      dx2y2   :     0.014031
      dxy     :     0.015537

  3 N s       :     3.468872  s :     3.468872
      pz      :     1.110968  p :     3.627305
      px      :     1.296804
      py      :     1.219534
      dz2     :     0.012298  d :     0.044199
      dxz     :     0.010661
      dyz     :     0.007764
      dx2y2   :     0.006216
      dxy     :     0.007261

  4 N s       :     3.494469  s :     3.494469
      pz      :     1.445074  p :     3.544716
      px      :     1.012260
      py      :     1.087382
      dz2     :     0.007034  d :     0.045112
      dxz     :     0.015516
      dyz     :     0.010857
      dx2y2   :     0.005512
      dxy     :     0.006193

  5 N s       :     3.448313  s :     3.448313
      pz      :     1.162250  p :     4.102505
      px      :     1.309893
      py      :     1.630361
      dz2     :     0.008352  d :     0.034143
      dxz     :     0.011172
      dyz     :     0.005644
      dx2y2   :     0.003557
      dxy     :     0.005418

  6 C s       :     3.147974  s :     3.147974
      pz      :     0.958372  p :     2.844650
      px      :     0.970358
      py      :     0.915920
      dz2     :     0.008108  d :     0.058903
      dxz     :     0.011628
      dyz     :     0.008888
      dx2y2   :     0.012698
      dxy     :     0.017582

  7 C s       :     3.441601  s :     3.441601
      pz      :     1.194656  p :     3.195063
      px      :     1.057146
      py      :     0.943261
      dz2     :     0.006176  d :     0.055726
      dxz     :     0.013780
      dyz     :     0.013652
      dx2y2   :     0.010735
      dxy     :     0.011384

  8 C s       :     3.144756  s :     3.144756
      pz      :     1.044259  p :     2.851184
      px      :     0.794151
      py      :     1.012774
      dz2     :     0.007132  d :     0.046305
      dxz     :     0.008616
      dyz     :     0.007562
      dx2y2   :     0.012861
      dxy     :     0.010133

  9 C s       :     3.140367  s :     3.140367
      pz      :     1.029476  p :     3.068214
      px      :     1.114637
      py      :     0.924101
      dz2     :     0.011036  d :     0.044760
      dxz     :     0.004562
      dyz     :     0.011203
      dx2y2   :     0.012475
      dxy     :     0.005484

 10 C s       :     3.045667  s :     3.045667
      pz      :     0.851785  p :     2.785425
      px      :     0.891740
      py      :     1.041900
      dz2     :     0.012166  d :     0.045429
      dxz     :     0.012727
      dyz     :     0.009134
      dx2y2   :     0.004411
      dxy     :     0.006990

 11 C s       :     3.185069  s :     3.185069
      pz      :     0.996581  p :     2.864616
      px      :     0.917045
      py      :     0.950990
      dz2     :     0.005290  d :     0.053326
      dxz     :     0.012377
      dyz     :     0.007668
      dx2y2   :     0.014774
      dxy     :     0.013216

 12 C s       :     3.253021  s :     3.253021
      pz      :     1.114292  p :     3.188430
      px      :     0.936935
      py      :     1.137203
      dz2     :     0.004809  d :     0.037452
      dxz     :     0.008971
      dyz     :     0.008606
      dx2y2   :     0.010553
      dxy     :     0.004513

 13 C s       :     3.284971  s :     3.284971
      pz      :     1.109185  p :     2.836891
      px      :     0.715536
      py      :     1.012170
      dz2     :     0.010092  d :     0.065626
      dxz     :     0.017465
      dyz     :     0.009881
      dx2y2   :     0.015743
      dxy     :     0.012445

 14 C s       :     3.049645  s :     3.049645
      pz      :     0.848917  p :     2.741711
      px      :     0.965093
      py      :     0.927701
      dz2     :     0.024217  d :     0.082606
      dxz     :     0.018997
      dyz     :     0.019685
      dx2y2   :     0.009882
      dxy     :     0.009825

 15 C s       :     3.201746  s :     3.201746
      pz      :     0.946601  p :     2.854256
      px      :     0.977867
      py      :     0.929787
      dz2     :     0.016368  d :     0.060212
      dxz     :     0.016373
      dyz     :     0.012270
      dx2y2   :     0.006411
      dxy     :     0.008790

 16 C s       :     3.159109  s :     3.159109
      pz      :     0.902568  p :     2.654952
      px      :     0.861792
      py      :     0.890592
      dz2     :     0.022814  d :     0.081387
      dxz     :     0.023720
      dyz     :     0.016952
      dx2y2   :     0.008976
      dxy     :     0.008924

 17 C s       :     3.309339  s :     3.309339
      pz      :     1.092165  p :     3.202475
      px      :     1.032258
      py      :     1.078053
      dz2     :     0.003911  d :     0.035585
      dxz     :     0.010262
      dyz     :     0.008163
      dx2y2   :     0.005318
      dxy     :     0.007931

 18 H s       :     0.741784  s :     0.741784

 19 H s       :     0.751868  s :     0.751868

 20 H s       :     0.805324  s :     0.805324

 21 H s       :     0.780560  s :     0.780560

 22 H s       :     0.715735  s :     0.715735

 23 H s       :     0.794929  s :     0.794929

 24 H s       :     0.797654  s :     0.797654

 25 H s       :     0.799557  s :     0.799557

 26 H s       :     0.823365  s :     0.823365

 27 H s       :     0.804423  s :     0.804423

 28 H s       :     0.822885  s :     0.822885

 29 H s       :     0.633789  s :     0.633789

 30 H s       :     0.657505  s :     0.657505

 31 H s       :     0.546092  s :     0.546092

 32 H s       :     0.801568  s :     0.801568

 33 H s       :     0.803218  s :     0.803218

 34 H s       :     0.795956  s :     0.795956



                     *******************************
                     * LOEWDIN POPULATION ANALYSIS *
                     *******************************

----------------------
LOEWDIN ATOMIC CHARGES
----------------------
   0 S :    0.807193
   1 O :   -0.809891
   2 N :   -0.057610
   3 N :   -0.191018
   4 N :   -0.184474
   5 N :   -0.419622
   6 C :   -0.026575
   7 C :   -0.153839
   8 C :   -0.225763
   9 C :   -0.249873
  10 C :   -0.177888
  11 C :   -0.247232
  12 C :   -0.392648
  13 C :    0.025695
  14 C :    0.085616
  15 C :   -0.020213
  16 C :    0.091337
  17 C :   -0.409340
  18 H :    0.180615
  19 H :    0.193240
  20 H :    0.184104
  21 H :    0.195211
  22 H :    0.216257
  23 H :    0.182655
  24 H :    0.184582
  25 H :    0.184855
  26 H :    0.171698
  27 H :    0.182166
  28 H :    0.169784
  29 H :    0.300045
  30 H :    0.284171
  31 H :    0.377958
  32 H :    0.175697
  33 H :    0.183200
  34 H :    0.189906

-------------------------------
LOEWDIN REDUCED ORBITAL CHARGES
-------------------------------
  0 S s       :     5.340728  s :     5.340728
      pz      :     3.297105  p :     9.705411
      px      :     3.257218
      py      :     3.151089
      dz2     :     0.022011  d :     0.146668
      dxz     :     0.023175
      dyz     :     0.028510
      dx2y2   :     0.051072
      dxy     :     0.021900

  1 O s       :     3.548698  s :     3.548698
      pz      :     1.905743  p :     4.882629
      px      :     1.418685
      py      :     1.558201
      dz2     :     0.038686  d :     0.378563
      dxz     :     0.086436
      dyz     :     0.039496
      dx2y2   :     0.106385
      dxy     :     0.107560

  2 N s       :     3.080519  s :     3.080519
      pz      :     1.328468  p :     3.862176
      px      :     1.264802
      py      :     1.268907
      dz2     :     0.015387  d :     0.114914
      dxz     :     0.022484
      dyz     :     0.015864
      dx2y2   :     0.028141
      dxy     :     0.033038

  3 N s       :     3.212634  s :     3.212634
      pz      :     1.252987  p :     3.896786
      px      :     1.383247
      py      :     1.260553
      dz2     :     0.025591  d :     0.081597
      dxz     :     0.020717
      dyz     :     0.014807
      dx2y2   :     0.008362
      dxy     :     0.012119

  4 N s       :     3.229232  s :     3.229232
      pz      :     1.542164  p :     3.871673
      px      :     1.165788
      py      :     1.163721
      dz2     :     0.011371  d :     0.083570
      dxz     :     0.027866
      dyz     :     0.017088
      dx2y2   :     0.011693
      dxy     :     0.015553

  5 N s       :     3.207073  s :     3.207073
      pz      :     1.222765  p :     4.156921
      px      :     1.328886
      py      :     1.605270
      dz2     :     0.016010  d :     0.055627
      dxz     :     0.019459
      dyz     :     0.009494
      dx2y2   :     0.004156
      dxy     :     0.006507

  6 C s       :     2.842817  s :     2.842817
      pz      :     0.986773  p :     3.059232
      px      :     1.066367
      py      :     1.006092
      dz2     :     0.015864  d :     0.124527
      dxz     :     0.023307
      dyz     :     0.020230
      dx2y2   :     0.026757
      dxy     :     0.038370

  7 C s       :     2.904725  s :     2.904725
      pz      :     1.105267  p :     3.146248
      px      :     1.087968
      py      :     0.953013
      dz2     :     0.010515  d :     0.102866
      dxz     :     0.024065
      dyz     :     0.026008
      dx2y2   :     0.020712
      dxy     :     0.021565

  8 C s       :     2.920684  s :     2.920684
      pz      :     1.069847  p :     3.208965
      px      :     1.056021
      py      :     1.083097
      dz2     :     0.013150  d :     0.096114
      dxz     :     0.018388
      dyz     :     0.014391
      dx2y2   :     0.028335
      dxy     :     0.021850

  9 C s       :     2.916442  s :     2.916442
      pz      :     1.098867  p :     3.253581
      px      :     1.112655
      py      :     1.042059
      dz2     :     0.018861  d :     0.079849
      dxz     :     0.007280
      dyz     :     0.021396
      dx2y2   :     0.022355
      dxy     :     0.009957

 10 C s       :     2.853945  s :     2.853945
      pz      :     1.091606  p :     3.227618
      px      :     1.063781
      py      :     1.072231
      dz2     :     0.027199  d :     0.096325
      dxz     :     0.027297
      dyz     :     0.018616
      dx2y2   :     0.008076
      dxy     :     0.015137

 11 C s       :     2.961729  s :     2.961729
      pz      :     1.055746  p :     3.174086
      px      :     1.028314
      py      :     1.090026
      dz2     :     0.010977  d :     0.111417
      dxz     :     0.023109
      dyz     :     0.014710
      dx2y2   :     0.034216
      dxy     :     0.028405

 12 C s       :     2.966304  s :     2.966304
      pz      :     1.155454  p :     3.364913
      px      :     1.050333
      py      :     1.159126
      dz2     :     0.007353  d :     0.061431
      dxz     :     0.015162
      dyz     :     0.012728
      dx2y2   :     0.018242
      dxy     :     0.007946

 13 C s       :     2.865499  s :     2.865499
      pz      :     1.087433  p :     2.977821
      px      :     0.848251
      py      :     1.042137
      dz2     :     0.018740  d :     0.130985
      dxz     :     0.033364
      dyz     :     0.016456
      dx2y2   :     0.035873
      dxy     :     0.026553

 14 C s       :     2.813664  s :     2.813664
      pz      :     0.967801  p :     2.925037
      px      :     1.010968
      py      :     0.946268
      dz2     :     0.056221  d :     0.175683
      dxz     :     0.039590
      dyz     :     0.038602
      dx2y2   :     0.018270
      dxy     :     0.023000

 15 C s       :     2.887659  s :     2.887659
      pz      :     1.059011  p :     3.009955
      px      :     1.007453
      py      :     0.943491
      dz2     :     0.036790  d :     0.122599
      dxz     :     0.033697
      dyz     :     0.025443
      dx2y2   :     0.010581
      dxy     :     0.016087

 16 C s       :     2.837927  s :     2.837927
      pz      :     1.022829  p :     2.898668
      px      :     0.973395
      py      :     0.902444
      dz2     :     0.051351  d :     0.172069
      dxz     :     0.053320
      dyz     :     0.034061
      dx2y2   :     0.015429
      dxy     :     0.017907

 17 C s       :     2.986467  s :     2.986467
      pz      :     1.133201  p :     3.365494
      px      :     1.105508
      py      :     1.126786
      dz2     :     0.005938  d :     0.057379
      dxz     :     0.016776
      dyz     :     0.012857
      dx2y2   :     0.008750
      dxy     :     0.013057

 18 H s       :     0.819385  s :     0.819385

 19 H s       :     0.806760  s :     0.806760

 20 H s       :     0.815896  s :     0.815896

 21 H s       :     0.804789  s :     0.804789

 22 H s       :     0.783743  s :     0.783743

 23 H s       :     0.817345  s :     0.817345

 24 H s       :     0.815418  s :     0.815418

 25 H s       :     0.815145  s :     0.815145

 26 H s       :     0.828302  s :     0.828302

 27 H s       :     0.817834  s :     0.817834

 28 H s       :     0.830216  s :     0.830216

 29 H s       :     0.699955  s :     0.699955

 30 H s       :     0.715829  s :     0.715829

 31 H s       :     0.622042  s :     0.622042

 32 H s       :     0.824303  s :     0.824303

 33 H s       :     0.816800  s :     0.816800

 34 H s       :     0.810094  s :     0.810094



                      *****************************
                      * MAYER POPULATION ANALYSIS *
                      *****************************

  NA   - Mulliken gross atomic population
  ZA   - Total nuclear charge
  QA   - Mulliken gross atomic charge
  VA   - Mayer's total valence
  BVA  - Mayer's bonded valence
  FA   - Mayer's free valence

  ATOM       NA         ZA         QA         VA         BVA        FA
  0 S     15.6925    16.0000     0.3075     2.7644     2.7644    -0.0000
  1 O      8.5764     8.0000    -0.5764     1.7760     1.7760    -0.0000
  2 N      6.9269     7.0000     0.0731     3.3127     3.3127     0.0000
  3 N      7.1404     7.0000    -0.1404     3.1668     3.1668     0.0000
  4 N      7.0843     7.0000    -0.0843     3.0980     3.0980     0.0000
  5 N      7.5850     7.0000    -0.5850     2.9794     2.9794    -0.0000
  6 C      6.0515     6.0000    -0.0515     4.1158     4.1158    -0.0000
  7 C      6.6924     6.0000    -0.6924     3.6224     3.6224     0.0000
  8 C      6.0422     6.0000    -0.0422     3.5614     3.5614    -0.0000
  9 C      6.2533     6.0000    -0.2533     3.6330     3.6330     0.0000
 10 C      5.8765     6.0000     0.1235     3.3145     3.3145    -0.0000
 11 C      6.1030     6.0000    -0.1030     3.8219     3.8219     0.0000
 12 C      6.4789     6.0000    -0.4789     3.7979     3.7979     0.0000
 13 C      6.1875     6.0000    -0.1875     3.7636     3.7636    -0.0000
 14 C      5.8740     6.0000     0.1260     4.0831     4.0831    -0.0000
 15 C      6.1162     6.0000    -0.1162     4.0985     4.0985    -0.0000
 16 C      5.8954     6.0000     0.1046     3.9454     3.9454     0.0000
 17 C      6.5474     6.0000    -0.5474     3.7193     3.7193     0.0000
 18 H      0.7418     1.0000     0.2582     0.8982     0.8982     0.0000
 19 H      0.7519     1.0000     0.2481     0.9309     0.9309     0.0000
 20 H      0.8053     1.0000     0.1947     0.9534     0.9534     0.0000
 21 H      0.7806     1.0000     0.2194     0.9480     0.9480     0.0000
 22 H      0.7157     1.0000     0.2843     0.8940     0.8940     0.0000
 23 H      0.7949     1.0000     0.2051     0.9390     0.9390     0.0000
 24 H      0.7977     1.0000     0.2023     0.9372     0.9372     0.0000
 25 H      0.7996     1.0000     0.2004     0.9478     0.9478     0.0000
 26 H      0.8234     1.0000     0.1766     0.9286     0.9286    -0.0000
 27 H      0.8044     1.0000     0.1956     0.9351     0.9351    -0.0000
 28 H      0.8229     1.0000     0.1771     0.9431     0.9431    -0.0000
 29 H      0.6338     1.0000     0.3662     0.8616     0.8616    -0.0000
 30 H      0.6575     1.0000     0.3425     0.8556     0.8556    -0.0000
 31 H      0.5461     1.0000     0.4539     0.7666     0.7666     0.0000
 32 H      0.8016     1.0000     0.1984     0.9553     0.9553     0.0000
 33 H      0.8032     1.0000     0.1968     0.9471     0.9471    -0.0000
 34 H      0.7960     1.0000     0.2040     0.9448     0.9448     0.0000

  Mayer bond orders larger than 0.100000
B(  0-S ,  8-C ) :   1.2028 B(  0-S , 11-C ) :   1.3325 B(  1-O , 13-C ) :   0.9391 
B(  1-O , 31-H ) :   0.7480 B(  2-N ,  6-C ) :   1.1878 B(  2-N ,  7-C ) :   0.8087 
B(  2-N , 11-C ) :   1.4281 B(  3-N , 14-C ) :   1.5285 B(  3-N , 16-C ) :   1.5332 
B(  4-N , 15-C ) :   1.6098 B(  4-N , 16-C ) :   1.4224 B(  5-N , 14-C ) :   1.2366 
B(  5-N , 29-H ) :   0.8200 B(  5-N , 30-H ) :   0.8223 B(  6-C ,  8-C ) :   1.6390 
[...]
 39:    758.94   0.001833    9.26  0.000754  (-0.008307  0.014980 -0.021457)
 40:    773.24   0.003532   17.85  0.001426  (-0.002300 -0.037417 -0.004493)
 41:    778.94   0.002260   11.42  0.000905  ( 0.014141 -0.004735  0.026135)
 42:    802.93   0.002670   13.49  0.001038  ( 0.019326  0.019367 -0.016999)
 43:    820.68   0.001356    6.85  0.000516  ( 0.019228 -0.000995 -0.012037)
 44:    883.98   0.003874   19.58  0.001368  (-0.028392  0.023113 -0.005237)
 45:    914.45   0.000402    2.03  0.000137  ( 0.011091 -0.002896 -0.002435)
 46:    933.57   0.000781    3.95  0.000261  ( 0.004348 -0.015205  0.003303)
 47:    936.61   0.000346    1.75  0.000115  (-0.001408 -0.010357 -0.002474)
 48:    949.27   0.000737    3.72  0.000242  (-0.006009  0.009969 -0.010327)
 49:    984.32   0.003102   15.68  0.000984  (-0.002846 -0.004327  0.030932)
 50:   1016.19   0.001729    8.74  0.000531  (-0.016202 -0.016302 -0.001602)
 51:   1020.36   0.002171   10.97  0.000664  ( 0.025545 -0.003369 -0.000372)
 52:   1047.21   0.004382   22.15  0.001306  ( 0.011495  0.030882 -0.014834)
 53:   1049.42   0.001409    7.12  0.000419  ( 0.001374  0.019862 -0.004754)
 54:   1056.52   0.002630   13.29  0.000777  ( 0.001882 -0.025303  0.011532)
 55:   1064.13   0.000842    4.26  0.000247  (-0.014583 -0.003386  0.004775)
 56:   1081.93   0.009997   50.52  0.002883  (-0.050567  0.017704 -0.003596)
 57:   1115.55   0.002081   10.52  0.000582  (-0.005774 -0.009224  0.021537)
 58:   1167.13   0.008962   45.29  0.002396  ( 0.006683 -0.043288  0.021857)
 59:   1207.86   0.004282   21.64  0.001106  ( 0.032652  0.006001 -0.002006)
 60:   1223.57   0.000937    4.73  0.000239  ( 0.014973  0.003429 -0.001735)
 61:   1236.57   0.007147   36.12  0.001804  (-0.012038 -0.037183  0.016615)
 62:   1245.71   0.001260    6.37  0.000316  ( 0.010704  0.004931 -0.013296)
 63:   1251.82   0.003127   15.80  0.000780  ( 0.025959 -0.008899  0.005149)
 64:   1297.71   0.005538   27.99  0.001332  (-0.023971 -0.024059 -0.013352)
 65:   1307.80   0.000570    2.88  0.000136  (-0.001582  0.003116 -0.011129)
 66:   1310.41   0.004620   23.35  0.001100  ( 0.030291 -0.003176  0.013132)
 67:   1318.22   0.007640   38.61  0.001809  (-0.012564 -0.037324  0.016050)
 68:   1357.88   0.001638    8.28  0.000377  (-0.003360 -0.018919 -0.002701)
 69:   1362.11   0.001131    5.71  0.000259  ( 0.005570  0.000123 -0.015099)
 70:   1368.06   0.009403   47.52  0.002145  ( 0.017439  0.036728 -0.022178)
 71:   1404.81   0.001139    5.75  0.000253  (-0.006433 -0.013948  0.004122)
 72:   1428.75   0.007539   38.10  0.001647  (-0.028030 -0.015196  0.025102)
 73:   1430.15   0.001453    7.34  0.000317  (-0.000014  0.007744 -0.016033)
 74:   1436.03   0.001620    8.19  0.000352  ( 0.007309  0.017250 -0.001010)
 75:   1457.71   0.038491  194.52  0.008240  (-0.034190 -0.042006  0.072846)
 76:   1466.54   0.001617    8.17  0.000344  (-0.011285  0.008617  0.011940)
 77:   1477.38   0.005887   29.75  0.001244  (-0.013080  0.001502  0.032714)
 78:   1480.83   0.002841   14.36  0.000599  ( 0.013750 -0.008757 -0.018250)
 79:   1482.19   0.001896    9.58  0.000399  ( 0.017073  0.010260 -0.001576)
 80:   1490.22   0.006605   33.38  0.001383  (-0.016486 -0.013253 -0.030591)
 81:   1493.48   0.001246    6.30  0.000260  ( 0.015550  0.004043 -0.001494)
 82:   1513.13   0.002933   14.82  0.000605  ( 0.007237 -0.018991  0.013851)
 83:   1522.76   0.000974    4.92  0.000200  (-0.005360  0.010992  0.007072)
 84:   1570.07   0.031866  161.04  0.006334  (-0.040960 -0.031723 -0.060411)
 85:   1609.16   0.002197   11.10  0.000426  ( 0.018181 -0.008868  0.004117)
 86:   1612.96   0.059859  302.50  0.011581  ( 0.056610  0.059795 -0.069289)
 87:   1664.72   0.041953  212.01  0.007864  (-0.008086  0.023252  0.085196)
 88:   2971.86   0.008456   42.73  0.000888  (-0.021303 -0.018463 -0.009655)
 89:   3007.51   0.001287    6.51  0.000134  ( 0.003173  0.010448 -0.003785)
 90:   3016.54   0.000817    4.13  0.000084  ( 0.003718 -0.008129  0.002141)
 91:   3016.93   0.000120    0.61  0.000012  ( 0.000476 -0.003153  0.001512)
 92:   3024.11   0.002162   10.92  0.000223  ( 0.014080 -0.003329 -0.003708)
 93:   3024.56   0.007452   37.66  0.000769  (-0.008301 -0.010696  0.024198)
 94:   3070.16   0.000085    0.43  0.000009  ( 0.000880  0.002812 -0.000065)
 95:   3071.59   0.001122    5.67  0.000114  (-0.004211 -0.005952 -0.007796)
 96:   3080.22   0.004994   25.24  0.000506  (-0.017202 -0.013399 -0.005520)
 97:   3081.75   0.001065    5.38  0.000108  ( 0.008870 -0.003765 -0.003868)
 98:   3082.53   0.001412    7.13  0.000143  (-0.011750 -0.002191 -0.000155)
 99:   3134.98   0.001364    6.89  0.000136  ( 0.005774  0.008230 -0.005891)
100:   3135.48   0.001337    6.75  0.000133  (-0.008327 -0.006525 -0.004594)
101:   3236.05   0.006218   31.42  0.000600  ( 0.011802  0.016606 -0.013585)
102:   3520.11   0.009820   49.63  0.000871  (-0.010139 -0.018116 -0.020966)
103:   3636.96   0.004663   23.56  0.000400  ( 0.015921  0.011959 -0.001892)
104:   3759.21   0.013302   67.22  0.001104  ( 0.016977 -0.027665 -0.007117)

* The epsilon (eps) is given for a Dirac delta lineshape.
** The dipole moment derivative (T) already includes vibrational overlap.

The first frequency considered to be a vibration is 6
The total number of vibrations considered is 99


--------------------------
THERMOCHEMISTRY AT 298.15K
--------------------------

Temperature         ...   298.15 K
Pressure            ...     1.00 atm
Total Mass          ...   265.35 AMU
Quasi RRHO          ...     True
Cut-Off Frequency   ...     1.00 cm^-1

Throughout the following assumptions are being made:
  (1) The electronic state is orbitally nondegenerate
  (2) There are no thermally accessible electronically excited states
  (3) Hindered rotations indicated by low frequency modes are not
      treated as such but are treated as vibrations and this may
      cause some error
  (4) All equations used are the standard statistical mechanics
      equations for an ideal gas
  (5) All vibrations are strictly harmonic

freq.      22.58  E(vib)   ...       0.56 
freq.      29.05  E(vib)   ...       0.55 
freq.      36.68  E(vib)   ...       0.54 
freq.      43.05  E(vib)   ...       0.53 
freq.      51.54  E(vib)   ...       0.52 
freq.      94.19  E(vib)   ...       0.47 
freq.     108.73  E(vib)   ...       0.45 
freq.     141.68  E(vib)   ...       0.41 
freq.     148.68  E(vib)   ...       0.41 
freq.     185.75  E(vib)   ...       0.37 
freq.     190.79  E(vib)   ...       0.36 
freq.     206.02  E(vib)   ...       0.35 
freq.     231.50  E(vib)   ...       0.32 
freq.     259.85  E(vib)   ...       0.30 
freq.     298.50  E(vib)   ...       0.26 
freq.     307.44  E(vib)   ...       0.26 
freq.     316.87  E(vib)   ...       0.25 
freq.     324.77  E(vib)   ...       0.24 
freq.     335.28  E(vib)   ...       0.24 
freq.     404.69  E(vib)   ...       0.19 
freq.     408.30  E(vib)   ...       0.19 
freq.     439.09  E(vib)   ...       0.17 
freq.     465.25  E(vib)   ...       0.16 
freq.     492.55  E(vib)   ...       0.14 
freq.     505.10  E(vib)   ...       0.14 
freq.     540.86  E(vib)   ...       0.12 
freq.     570.77  E(vib)   ...       0.11 
freq.     575.04  E(vib)   ...       0.11 
freq.     593.25  E(vib)   ...       0.10 
freq.     609.67  E(vib)   ...       0.10 
freq.     638.83  E(vib)   ...       0.09 
freq.     648.20  E(vib)   ...       0.08 
freq.     671.62  E(vib)   ...       0.08 
freq.     758.94  E(vib)   ...       0.06 
freq.     773.24  E(vib)   ...       0.05 
freq.     778.94  E(vib)   ...       0.05 
freq.     802.93  E(vib)   ...       0.05 
freq.     820.68  E(vib)   ...       0.05 
freq.     883.98  E(vib)   ...       0.04 
freq.     914.45  E(vib)   ...       0.03 
freq.     933.57  E(vib)   ...       0.03 
freq.     936.61  E(vib)   ...       0.03 
freq.     949.27  E(vib)   ...       0.03 
freq.     984.32  E(vib)   ...       0.02 
freq.    1016.19  E(vib)   ...       0.02 
freq.    1020.36  E(vib)   ...       0.02 
freq.    1047.21  E(vib)   ...       0.02 
freq.    1049.42  E(vib)   ...       0.02 
freq.    1056.52  E(vib)   ...       0.02 
freq.    1064.13  E(vib)   ...       0.02 
freq.    1081.93  E(vib)   ...       0.02 
freq.    1115.55  E(vib)   ...       0.01 
freq.    1167.13  E(vib)   ...       0.01 
freq.    1207.86  E(vib)   ...       0.01 
freq.    1223.57  E(vib)   ...       0.01 
freq.    1236.57  E(vib)   ...       0.01 
freq.    1245.71  E(vib)   ...       0.01 
freq.    1251.82  E(vib)   ...       0.01 
freq.    1297.71  E(vib)   ...       0.01 
freq.    1307.80  E(vib)   ...       0.01 
freq.    1310.41  E(vib)   ...       0.01 
freq.    1318.22  E(vib)   ...       0.01 
freq.    1357.88  E(vib)   ...       0.01 
freq.    1362.11  E(vib)   ...       0.01 
freq.    1368.06  E(vib)   ...       0.01 
freq.    1404.81  E(vib)   ...       0.00 
freq.    1428.75  E(vib)   ...       0.00 
freq.    1430.15  E(vib)   ...       0.00 
freq.    1436.03  E(vib)   ...       0.00 
freq.    1457.71  E(vib)   ...       0.00 
freq.    1466.54  E(vib)   ...       0.00 
freq.    1477.38  E(vib)   ...       0.00 
freq.    1480.83  E(vib)   ...       0.00 
freq.    1482.19  E(vib)   ...       0.00 
freq.    1490.22  E(vib)   ...       0.00 
freq.    1493.48  E(vib)   ...       0.00 
freq.    1513.13  E(vib)   ...       0.00 
freq.    1522.76  E(vib)   ...       0.00 
freq.    1570.07  E(vib)   ...       0.00 
freq.    1609.16  E(vib)   ...       0.00 
freq.    1612.96  E(vib)   ...       0.00 
freq.    1664.72  E(vib)   ...       0.00 
freq.    2971.86  E(vib)   ...       0.00 
freq.    3007.51  E(vib)   ...       0.00 
freq.    3016.54  E(vib)   ...       0.00 
freq.    3016.93  E(vib)   ...       0.00 
freq.    3024.11  E(vib)   ...       0.00 
freq.    3024.56  E(vib)   ...       0.00 
freq.    3070.16  E(vib)   ...       0.00 
freq.    3071.59  E(vib)   ...       0.00 
freq.    3080.22  E(vib)   ...       0.00 
freq.    3081.75  E(vib)   ...       0.00 
freq.    3082.53  E(vib)   ...       0.00 
freq.    3134.98  E(vib)   ...       0.00 
freq.    3135.48  E(vib)   ...       0.00 
freq.    3236.05  E(vib)   ...       0.00 
freq.    3520.11  E(vib)   ...       0.00 
freq.    3636.96  E(vib)   ...       0.00 
freq.    3759.21  E(vib)   ...       0.00 

------------
INNER ENERGY
------------

The inner energy is: U= E(el) + E(ZPE) + E(vib) + E(rot) + E(trans)
    E(el)   - is the total energy from the electronic structure calculation
              = E(kin-el) + E(nuc-el) + E(el-el) + E(nuc-nuc)
    E(ZPE)  - the the zero temperature vibrational energy from the frequency calculation
    E(vib)  - the the finite temperature correction to E(ZPE) due to population
              of excited vibrational states
    E(rot)  - is the rotational thermal energy
    E(trans)- is the translational thermal energy

Summary of contributions to the inner energy U:
Electronic energy                ...  -1159.31879102 Eh
Zero point energy                ...      0.28465857 Eh     178.63 kcal/mol
Thermal vibrational correction   ...      0.01581274 Eh       9.92 kcal/mol
Thermal rotational correction    ...      0.00141627 Eh       0.89 kcal/mol
Thermal translational correction ...      0.00141627 Eh       0.89 kcal/mol
-----------------------------------------------------------------------
Total thermal energy                  -1159.01548716 Eh


Summary of corrections to the electronic energy:
(perhaps to be used in another calculation)
Total thermal correction                  0.01864529 Eh      11.70 kcal/mol
Non-thermal (ZPE) correction              0.28465857 Eh     178.63 kcal/mol
-----------------------------------------------------------------------
Total correction                          0.30330386 Eh     190.33 kcal/mol


--------
ENTHALPY
--------

The enthalpy is H = U + kB*T
                kB is Boltzmann's constant
Total thermal energy              ...  -1159.01548716 Eh 
Thermal Enthalpy correction       ...      0.00094421 Eh       0.59 kcal/mol
-----------------------------------------------------------------------
Total Enthalpy                    ...  -1159.01454295 Eh


Note: Only C1 symmetry has been detected, increase convergence thresholds 
      if your molecule has a higher symmetry. Symmetry factor of 1.0 is   
      used for the rotational entropy correction. 
 

Note: Rotational entropy computed according to Herzberg 
Infrared and Raman Spectra, Chapter V,1, Van Nostrand Reinhold, 1945 
Point Group:  C1, Symmetry Number:   1  
Rotational constants in cm-1:     0.030633     0.005892     0.005527 

Vibrational entropy computed according to the QRRHO of S. Grimme
Chem.Eur.J. 2012 18 9955 using a reference frequency of 100.0 cm-1


-------
ENTROPY
-------

The entropy contributions are T*S = T*(S(el)+S(vib)+S(rot)+S(trans))
     S(el)   - electronic entropy
     S(vib)  - vibrational entropy
     S(rot)  - rotational entropy
     S(trans)- translational entropy
The entropies will be listed as multiplied by the temperature to get
units of energy

Electronic entropy                ...      0.00000000 Eh      0.00 kcal/mol
Vibrational entropy               ...      0.02825683 Eh     17.73 kcal/mol
Rotational entropy                ...      0.01603418 Eh     10.06 kcal/mol
Translational entropy             ...      0.02025338 Eh     12.71 kcal/mol
-----------------------------------------------------------------------
Final entropy term                ...      0.06454439 Eh     40.50 kcal/mol

In case the symmetry of your molecule has not been determined correctly
or in case you have a reason to use a different symmetry number we print 
out the resulting rotational entropy values for sn=1,12:

 non-linear molecules -----------------------------------
|  sn= 1 | S(rot)=       0.01603418 Eh     10.06 kcal/mol|
|  sn= 2 | S(rot)=       0.01537972 Eh      9.65 kcal/mol|
|  sn= 3 | S(rot)=       0.01499689 Eh      9.41 kcal/mol|
|  sn= 4 | S(rot)=       0.01472527 Eh      9.24 kcal/mol|
|  sn= 5 | S(rot)=       0.01451458 Eh      9.11 kcal/mol|
|  sn= 6 | S(rot)=       0.01434243 Eh      9.00 kcal/mol|
|  sn= 7 | S(rot)=       0.01419689 Eh      8.91 kcal/mol|
|  sn= 8 | S(rot)=       0.01407081 Eh      8.83 kcal/mol|
|  sn= 9 | S(rot)=       0.01395960 Eh      8.76 kcal/mol|
|  sn=10 | S(rot)=       0.01386012 Eh      8.70 kcal/mol|
|  sn=11 | S(rot)=       0.01377013 Eh      8.64 kcal/mol|
|  sn=12 | S(rot)=       0.01368798 Eh      8.59 kcal/mol|
 linear molecules ---------------------------------------
|  Dinfh | S(rot)=       0.01023378 Eh      6.42 kcal/mol|
|  Cinfv | S(rot)=       0.01088824 Eh      6.83 kcal/mol|
 --------------------------------------------------------


-------------------
GIBBS FREE ENERGY
-------------------

The Gibbs free energy is G = H - T*S

Total enthalpy                    ...  -1159.01454295 Eh 
Total entropy correction          ...     -0.06454439 Eh    -40.50 kcal/mol
-----------------------------------------------------------------------
Final Gibbs free energy         ...  -1159.07908734 Eh

For completeness - the Gibbs free energy minus the electronic energy
G-E(el)                           ...      0.23970368 Eh    150.42 kcal/mol


Maximum memory used throughout the entire PROP-calculation: 105.2 MB

--------------------------------
SUGGESTED CITATIONS FOR THIS RUN
--------------------------------

Below you find a list of papers that are relevant to this ORCA run
We neither can nor want to force you to cite these papers, but we appreciate if you do
You receive ORCA, which is the product of decades of hard work by many enthusiastic individuals, for free
The only thing we kindly ask in return is that you cite our papers,
We deeply appreciate it, if you show your appreciation for ORCA by not just citing the generic ORCA reference.

Please note that relegating all ORCA citations to the supporting information does *not* help us.
SI sections are not indexed - citations you put there will not count into any citation statistics
But we need these citations in order to attract the funding resources that allow us to do what we are doing

Therefore, if you are a happy ORCA user, please consider citing a few of the papers listed below in the main body of your paper

In addition to the list printed below, the program has created the file m1_01_Vitamin_B1-QM3_06-B97-3C-TZ.bibtex that contains the list in bibtex format
You can import this file easily into all common literature databanks and citation aid programs


List of essential papers. We consider these as the minimum necessary citations

  1. Neese,F.
     Software update: the ORCA program system, version 5.0
     WIRES Comput. Molec. Sci., 2022 12(1)e1606
     doi.org/10.1002/wcms.1606

List of papers to cite with high priority. The work reported in these papers was absolutely
necessary for this run to complete.
Our perspective: the developers of density functionals and basis sets usually get cited in chemistry papers
Good! But without the algorithms to do something with them, the functionals or basis sets would not do anything.
Hence, in our opinion, the algorithm design and method developments papers are equally worthy of getting cited

  1. Neese,F.
     An improvement of the resolution of the identity approximation for the formation of the Coulomb matrix
     J. Comp. Chem., 2003 24(14)1740-1747
     doi.org/10.1002/jcc.10318
  2. Bykov,D.; Petrenko,T.; Izsak,R.; Kossmann,S.; Becker,U.; Valeev,E.; Neese,F.
     Efficient implementation of the analytic second derivatives of Hartree-Fock and hybrid DFT energies: a detailed analysis of different approximations
     Molec. Phys., 2015 113 1961-1977
     doi.org/10.1080/00268976.2015.1025114
  3. Neese,F.
     The SHARK Integral Generation and Digestion System
     J. Comp. Chem., 2022  1-16
     doi.org/10.1002/jcc.26942
  4. Grimme,S.; Antony,J.; Ehrlich,S.; Krieg,H.
     A consistent and accurate ab initio parametrization of density functional dispersion correction (DFT-D) for the 94 elements H-Pu
     J. Chem. Phys., 2010 132 154104
     doi.org/10.1063/1.3382344
  5. Grimme,S.; Ehrlich,S.; Goerigk,L.
     Effect of the damping function in dispersion corrected density functional theory
     J. Comput. Chem., 2011 32(7)1456-1465
     doi.org/10.1002/jcc.21759

List of suggested additional citations. These are papers that are important in the 'surrounding' of 
of this run, or papers that preceded the highly important papers. If you like your results we are grateful for a citation.

  1. Neese,F.
     The ORCA program system
     WIRES Comput. Molec. Sci., 2012 2(1)73-78
     doi.org/10.1002/wcms.81
  2. Neese,F.
     Software update: the ORCA program system, version 4.0
     WIRES Comput. Molec. Sci., 2018 8(1)1-6
     doi.org/10.1002/wcms.1327
  3. Neese,F.; Wennmohs,F.; Becker,U.; Riplinger,C.
     The ORCA quantum chemistry program package
     J. Chem. Phys., 2020 152 Art. No. L224108
     doi.org/10.1063/5.0004608

List of optional additional citations

  1. Neese,F.
     Approximate second-order SCF convergence for spin unrestricted wavefunctions
     Chem. Phys. Lett., 2000 325(1-3)93-98
     doi.org/10.1016/s0009-2614(00)00662-x

Timings for individual modules:

Sum of individual times          ...      325.476 sec (=   5.425 min)
Startup calculation              ...       35.169 sec (=   0.586 min)  10.8 %
SCF iterations                   ...       68.601 sec (=   1.143 min)  21.1 %
Property integrals               ...       71.712 sec (=   1.195 min)  22.0 %
SCF Response                     ...       81.097 sec (=   1.352 min)  24.9 %
Property calculations            ...       31.374 sec (=   0.523 min)   9.6 %
SCF Gradient evaluation          ...       37.452 sec (=   0.624 min)  11.5 %
Geometry relaxation              ...        0.071 sec (=   0.001 min)   0.0 %
                             ****ORCA TERMINATED NORMALLY****
TOTAL RUN TIME: 0 days 0 hours 5 minutes 27 seconds 540 msec
