
                                 *****************
                                 * O   R   C   A *
                                 *****************

                                            #,                                       
                                            ###                                      
                                            ####                                     
                                            #####                                    
                                            ######                                   
                                           ########,                                 
                                     ,,################,,,,,                         
                               ,,#################################,,                 
                          ,,##########################################,,             
                       ,#########################################, ''#####,          
                    ,#############################################,,   '####,        
                  ,##################################################,,,,####,       
                ,###########''''           ''''###############################       
              ,#####''   ,,,,##########,,,,          '''####'''          '####       
            ,##' ,,,,###########################,,,                        '##       
           ' ,,###''''                  '''############,,,                           
         ,,##''                                '''############,,,,        ,,,,,,###''
      ,#''                                            '''#######################'''  
     '                                                          ''''####''''         
             ,#######,   #######,   ,#######,      ##                                
            ,#'     '#,  ##    ##  ,#'     '#,    #''#        ,####,   ,####,        
            ##       ##  ##   ,#'  ##            #'  '#       #'       #'  '#        
            ##       ##  #######   ##           ,######,      #####,   #    #        
            '#,     ,#'  ##    ##  '#,     ,#' ,#      #,     #,   #   #,  ,#        
             '#######'   ##     ##  '#######'  #'      '#     '####' # '####'        



                #########################################################
                #                        -***-                          #
                #          Department of theory and spectroscopy        #
                #                                                       #
                #                      Frank Neese                      #
                #                                                       #
                #     Directorship, Architecture, Infrastructure        #
                #                    SHARK, DRIVERS                     #
                #        Core code/Algorithms in most modules           #
                #                                                       #
                #        Max Planck Institute fuer Kohlenforschung      #
                #                Kaiser Wilhelm Platz 1                 #
                #                 D-45470 Muelheim/Ruhr                 #
                #                      Germany                          #
                #                                                       #
                #                  All rights reserved                  #
                #                        -***-                          #
                #########################################################


                         Program Version 6.0.1  -  RELEASE   -


 With contributions from (in alphabetic order):
[Max-Planck-Institut fuer Kohlenforschung]                               
  Daniel Aravena         : Magnetic Suceptibility                        
  Michael Atanasov       : Ab Initio Ligand Field Theory (pilot matlab implementation)
  Alexander A. Auer      : GIAO ZORA, VPT2 properties, NMR spectrum      
  Ute Becker             : All parallelization in ORCA, NUMFREQ, NUMCALC 
  Giovanni Bistoni       : ED, misc. LED, open-shell LED, HFLD           
  Martin Brehm           : Molecular dynamics                            
  Dmytro Bykov           : pre 5.0 version of the SCF Hessian            
  Marcos Casanova-Páez   : Triplet and SCS-CIS(D). UHF-(DLPNO)-IP/EA/STEOM-CCSD. UHF-CVS-IP/STEOM-CCSD   
  Vijay G. Chilkuri      : MRCI spin determinant printing, contributions to CSF-ICE 
  Pauline Colinet        : FMM embedding                                 
  Dipayan Datta          : RHF DLPNO-CCSD density                        
  Achintya Kumar Dutta   : EOM-CC, STEOM-CC                              
  Nicolas Foglia         : Exact transition moments, OPA infrastructure, MCD improvements    
  Dmitry Ganyushin       : Spin-Orbit,Spin-Spin,Magnetic field MRCI      
  Miquel Garcia-Rates    : C-PCM and meta-GGA Hessian, CCSD/C-PCM, Gaussian charge scheme 
  Tiago L. C. Gouveia    : GS-ROHF, GS-ROCIS                             
  Yang Guo               : DLPNO-NEVPT2, F12-NEVPT2, CIM, IAO-localization        
  Andreas Hansen         : Spin unrestricted coupled pair/coupled cluster methods 
  Ingolf Harden          : AUTO-CI MPn and infrastructure                
  Benjamin Helmich-Paris : MC-RPA, TRAH-(SCF,CASSCF), AVAS, COSX integrals, SCF dyn. polar. 
  Lee Huntington         : MR-EOM, pCC                                   
  Robert Izsak           : Overlap fitted RIJCOSX, COSX-SCS-MP3, EOM     
  Riya Kayal             : Wick's Theorem for AUTO-CI, AUTO-CI UHF-CCSDT 
  Emily Kempfer          : AUTO-CI, RHF CISDT and CCSDT                  
  Christian Kollmar      : KDIIS, OOCD, Brueckner-CCSD(T), CCSD density, CASPT2, CASPT2-K, improved NEVPT2 
  Axel Koslowski         : Symmetry handling                             
  Simone Kossmann        : meta-GGA functionals, TD-DFT gradient, OOMP2, (MP2 Hessian; deprecated post 5.0) 
  Lucas Lang             : DCDCAS                                        
  Marvin Lechner         : AUTO-CI (C++ implementation), FIC-MRCC        
  Spencer Leger          : CASSCF response                               
  Dagmar Lenk            : GEPOL surface, SMD, ORCA-2-JSON               
  Dimitrios Liakos       : Extrapolation schemes; Compound Job, initial MDCI parallelization 
  Dimitrios Manganas     : Further ROCIS development; embedding schemes. LFT, Crystal Embedding 
  Dimitrios Pantazis     : SARC Basis sets                               
  Anastasios Papadopoulos: AUTO-CI, single reference methods and gradients 
  Taras Petrenko         : pre 6.0 DFT Hessian and TD-DFT gradient, (ASA, deprecated), ECA, 1-Electron XAS/XES, NRVS 
  Peter Pinski           : DLPNO-MP2, DLPNO-MP2 Gradient                 
  Christoph Reimann      : Effective Core Potentials                     
  Marius Retegan         : Local ZFS, SOC                                
  Christoph Riplinger    : Optimizer, TS searches, QM/MM, DLPNO-CCSD(T), (RO)-DLPNO pert. Triples 
  Michael Roemelt        : Original ROCIS implementation                 
  Masaaki Saitow         : Open-shell DLPNO-CCSD energy and density      
  Barbara Sandhoefer     : DKH picture change effects                    
  Kantharuban Sivalingam : CASSCF convergence/infrastructure, NEVPT2 and variants, FIC-MRCI 
  Bernardo de Souza      : ESD, SOC TD-DFT                               
  Georgi L. Stoychev     : AutoAux, RI-MP2 NMR, DLPNO-MP2 response, X2C  
  Van Anh Tran           : RI-MP2 g-tensors                              
  Willem Van den Heuvel  : Paramagnetic NMR                              
  Zikuan Wang            : NOTCH, Electric field optimization            
  Frank Wennmohs         : Technical directorship and infrastructure     
  Hang Xu                : AUTO-CI-Response properties                   
                                                                         
[FACCTs GmbH]                                                            
  Markus Bursch, Miquel Garcia-Rates, Christoph Riplinger, Bernardo de Souza, Georgi L. Stoychev 
                                                                 
  APM, Basis sets (HGBS, AHGBS, def-TZVP (Ac-Lr), def2-XVPD (La-Lu)), CI-OPT, improved COSX, DLPNO-Multilevel,           
  DOCKER, DRACO, updates on ESD, GOAT, IRC, LR-CPCM, MBIS, meta-GGA TD-DFT gradient, ML-optimized integration grids, 
  MM, NACMEs, nearIR, NEB, NEB-TS, NL-DFT gradient (VV10), 2- and 3-layer-ONIOM, interface openCOSMO-RS, QMMM,   
  Crystal-QMMM, SF, symmetry and pop. for TD-DFT, r2SCAN hybrids, SOLVATOR                                   
                                                                         
[Other institutions]                                                     
  V. Asgeirsson          : NEB                                           
  Christoph Bannwarth    : sTDA-DFT, sTD-DFT, PBEh-3c, B97-3c, D3        
  Sebastian Ehlert       : rSCAN, r2SCAN, r2SCAN-3c, D4, dhf basis sets  
  Marvin Friede          : D4 for Fr, Ra, Ac-Lr                          
  Lars Goerigk           : TD-DFT with DH, B97 family of functionals     
  Stefan Grimme          : VdW corrections, initial TS optimization, DFT functionals, gCP, sTDA/sTD-DF 
  Waldemar Hujo          : DFT-NL                                        
  H. Jonsson             : NEB                                           
  Holger Kruse           : gCP                                           
  Marcel Mueller         : wB97X-3c, vDZP basis set                      
  Hagen Neugebauer       : wr2SCAN                                       
  Tobias Risthaus        : range-separated hybrid DFT                    
  Lukas Wittmann         : regularized MP2, r2SCAN double-hybrids, wr2SCAN        
                                                                         
We gratefully acknowledge several colleagues who have allowed us to      
interface, adapt or use parts of their codes:                            
  Ed Valeev, F. Pavosevic, A. Kumar             : LibInt (2-el integral package), F12 methods 
  Garnet Chan, S. Sharma, J. Yang, R. Olivares  : DMRG                   
  Ulf Ekstrom                                   : XCFun DFT Library      
  Mihaly Kallay                                 : mrcc  (arbitrary order and MRCC methods)
  Frank Weinhold                                : gennbo (NPA and NBO analysis)           
  Simon Mueller                                 : openCOSMO-RS                            
  Christopher J. Cramer and Donald G. Truhlar   : smd solvation model                     
  S Lehtola, MJT Oliveira, MAL Marques          : LibXC Library                           
  Liviu Ungur et al                             : ANISO software                          


 Your calculation uses the libint2 library for the computation of 2-el integrals
 For citations please refer to: http://libint.valeyev.net

 Your ORCA version has been built with support for libXC version: 6.2.2
 For citations please refer to: https://libxc.gitlab.io

 This ORCA versions uses:
   CBLAS   interface :  Fast vector & matrix operations
   LAPACKE interface :  Fast linear algebra routines
   SCALAPACK package :  Parallel linear algebra routines
   Shared memory     :  Shared parallel matrices
   BLAS/LAPACK       :  OpenBLAS 0.3.27  USE64BITINT DYNAMIC_ARCH NO_AFFINITY Zen SINGLE_THREADED
        Core in use  :  Zen
   Copyright (c) 2011-2014, The OpenBLAS Project


NOTE: MaxCore=6000 MB was set to SCF,MP2,MDCI,CIPSI,MRCI and CIS
      => If you want to overwrite this, your respective input block should be placed after the MaxCore statement
Your calculation utilizes the atom-pairwise dispersion correction
with the Becke-Johnson damping scheme (D3BJ)


Your calculation employs the composite approach B97-3c by Grimme and coworkers.
For the correct reference, please check the publication list of the Grimme group:
http://www.thch.uni-bonn.de/tc/index.php?section=publikationen&subsection=grimme#2017
   

XCFun DFT library Copyright 2009-2010 Ulf Ekstrom and contributors.
See http://admol.org/xcfun for more information.
This is free software; see the source code for copying conditions.
There is ABSOLUTELY NO WARRANTY; not even for MERCHANTABILITY or FITNESS FOR A PARTICULAR PURPOSE.
For details see the documentation.
Scientific users of this library should cite U. Ekstrom, L. Visscher, R. Bast, A. J. Thorvaldsen and K. Ruud;
J.Chem.Theor.Comp. 2010, DOI: 10.1021/ct100117s
XCFun Version 0.99 

================================================================================

----- Orbital basis set information -----
Your calculation utilizes the basis: def2-mTZVP
----- AuxJ basis set information -----
Your calculation utilizes the basis: def2-mTZVP/J
================================================================================
                                        WARNINGS
                       Please study these warnings very carefully!
================================================================================


WARNING: Geometry Optimization
  ===> : Switching off AutoStart
         For restart on a previous wavefunction, please use MOREAD

================================================================================
                                       INPUT FILE
================================================================================
NAME = m1_01_Vitamin_B1-QM3_00-B97-3C-TZ.inp
|  1> %pal nprocs 16 end
|  2> %MaxCore 6000
|  3> # put your comments here
|  4> ! B97-3C  OPT  FREQ DEFGRID3 NOTRAH
|  5> %scf MaxIter 800 end
|  6> %output
|  7> Print [P_Hirshfeld] 1
|  8> end
|  9> %geom
| 10> MaxIter 3000
| 11>  TolE 1e-6 #TolE 5e-6 Energy change (a.u.)
| 12>  TolRMSG 3e-5 #TolRMSG 1e-4 RMS gradient (a.u.)
| 13>  TolMaxG 1e-4 #TolMaxG 3e-3 Max. element of gradient (a.u.)
| 14>  TolRMSD 2e-3 #TolRMSD 2e-3 RMS displacement (a.u.)
| 15>  TolMaxD 4e-3 #TolMaxD 4e-3 Max. displacement (a.u.)
| 16> end
| 17> * xyz 1 1
| 18>  S       0.18509077      -1.17509170       2.82177542
| 19>  O       1.83039588      -3.04403819      -0.49204356
| 20>  N       0.71902616       0.60648831       1.13496640
| 21>  N      -2.96935518       1.77147751      -0.79200984
| 22>  N      -1.62226949       1.00624341      -2.56848445
| 23>  N      -2.09723921       2.51344027       1.23710943
| 24>  C       1.68267921      -0.37888878       0.91809789
| 25>  C       0.59243208       1.84251374       0.32655462
| 26>  C       1.53047312      -1.42396771       1.76206056
| 27>  C       2.32767779      -2.68265838       1.79351766
| 28>  C      -0.60624523       1.73846087      -0.53645865
| 29>  C      -0.12652188       0.31326514       2.09502922
| 30>  C       2.72470543      -0.20393818      -0.12593678
| 31>  C       1.80528176      -3.66955564       0.76616292
| 32>  C      -1.89678925       2.02371148      -0.05367662
| 33>  C      -0.54671930       1.23479817      -1.82974061
| 34>  C      -2.81827861       1.27231750      -2.02214051
| 35>  C      -4.04942284       1.02066183      -2.84001413
| 36>  H       1.50565554       1.93553858      -0.25232771
| 37>  H       0.53875386       2.67244590       1.03069777
| 38>  H       2.29999704      -3.12594466       2.79424645
| 39>  H       3.36803865      -2.44937639       1.56652873
| 40>  H      -0.94168648       0.97693679       2.34604410
| 41>  H       2.27320734      -0.13799447      -1.11448843
| 42>  H       3.30830990       0.69998371       0.05935604
| 43>  H       3.38725599      -1.06051228      -0.11595909
| 44>  H       0.78453125      -3.97787075       1.03143561
| 45>  H       2.42956671      -4.57458234       0.78607774
| 46>  H       0.41796304       1.00088303      -2.27997020
| 47>  H      -3.07382245       2.73639317       1.38718231
| 48>  H      -1.49727463       3.28791990       1.49115888
| 49>  H       1.57815649      -3.67256708      -1.17845363
| 50>  H      -4.90473509       0.84874931      -2.18861721
| 51>  H      -4.24920147       1.90308978      -3.45408797
| 52>  H      -3.88963691       0.17166815      -3.50359234
| 53> *
| 54> 
| 55> 
| 56> 
| 57> 
| 58>                          ****END OF INPUT****
================================================================================

                       *****************************
                       * Geometry Optimization Run *
                       *****************************

Geometry optimization settings:
Update method            Update   .... BFGS
Choice of coordinates    CoordSys .... (2022) Redundant Internals
Initial Hessian          InHess   .... Almloef's Model
Max. no of cycles        MaxIter  .... 3000

Convergence Tolerances:
Energy Change            TolE     ....  1.0000e-06 Eh
Max. Gradient            TolMAXG  ....  1.0000e-04 Eh/bohr
RMS Gradient             TolRMSG  ....  3.0000e-05 Eh/bohr
Max. Displacement        TolMAXD  ....  4.0000e-03 bohr
RMS Displacement         TolRMSD  ....  2.0000e-03 bohr
Strict Convergence                .... False

------------------------------------------------------------------------------
                        ORCA OPTIMIZATION COORDINATE SETUP
------------------------------------------------------------------------------

The optimization will be done in redundant internal coordinates (2022)
Making redundant internal coordinates   ...  (2022 redundants) done
Evaluating the initial hessian          ...  (Almloef) done
Evaluating the coordinates              ...  done
Calculating the B-matrix                .... done
Calculating the G-matrix                .... done
Diagonalizing the G-matrix              .... done
Small eigenvalue found = 3.811e-03
Small eigenvalue found = 8.043e-03
Small eigenvalue found = 1.085e-02
Small eigenvalue found = 1.642e-02
Small eigenvalue found = 2.643e-02
The first mode is                       ....   68
The number of degrees of freedom        ....   99

    -----------------------------------------------------------------
                    Redundant Internal Coordinates


    -----------------------------------------------------------------
         Definition                    Initial Value    Approx d2E/dq
    -----------------------------------------------------------------
      1. B(C   6,N   2)                  1.3952         0.548977   
      2. B(C   7,N   2)                  1.4823         0.398623   
      3. B(C   8,S   0)                  1.7306         0.482053   
      4. B(C   8,C   6)                  1.3519         0.718666   
      5. B(C   9,C   8)                  1.4902         0.432320   
      6. B(C  10,C   7)                  1.4807         0.447761   
      7. B(C  11,S   0)                  1.6854         0.569199   
      8. B(C  11,N   2)                  1.3125         0.743917   
      9. B(C  12,C   6)                  1.4854         0.440071   
     10. B(C  13,C   9)                  1.5173         0.391359   
     11. B(C  13,O   1)                  1.4053         0.528930   
     12. B(C  14,C  10)                  1.4071         0.586740   
     13. B(C  14,N   5)                  1.3950         0.549327   
     14. B(C  14,N   3)                  1.3263         0.707057   
     15. B(C  15,N   4)                  1.3247         0.711349   
     16. B(C  15,C  10)                  1.3892         0.626701   
     17. B(C  16,N   4)                  1.3415         0.668641   
     18. B(C  16,N   3)                  1.3361         0.682093   
     19. B(C  17,C  16)                  1.4993         0.418142   
     20. B(H  18,C   7)                  1.0852         0.366459   
     21. B(H  19,C   7)                  1.0897         0.360473   
     22. B(H  20,C   9)                  1.0949         0.353723   
     23. B(H  21,C   9)                  1.0901         0.359982   
     24. B(H  22,C  11)                  1.0807         0.372584   
     25. B(H  23,C  12)                  1.0888         0.361723   
     26. B(H  24,C  12)                  1.0918         0.357742   
     27. B(H  25,C  12)                  1.0830         0.369541   
     28. B(H  26,C  13)                  1.0988         0.348646   
     29. B(H  27,C  13)                  1.0996         0.347574   
     30. B(H  28,C  15)                  1.0900         0.360139   
     31. B(H  29,N   5)                  1.0129         0.428139   
     32. B(H  30,N   5)                  1.0121         0.429405   
     33. B(H  31,O   1)                  0.9643         0.511849   
     34. B(H  32,C  17)                  1.0888         0.361724   
     35. B(H  33,C  17)                  1.0935         0.355538   
     36. B(H  34,C  17)                  1.0893         0.360976   
     37. A(C   8,S   0,C  11)           90.3833         0.455179   
     38. A(C  13,O   1,H  31)          110.0301         0.359225   
     39. A(C   6,N   2,C  11)          113.6328         0.433094   
     40. A(C   7,N   2,C  11)          122.0183         0.409050   
     41. A(C   6,N   2,C   7)          124.2716         0.387778   
     42. A(C  14,N   3,C  16)          119.4804         0.446292   
     43. A(C  15,N   4,C  16)          117.5497         0.445172   
     44. A(C  14,N   5,H  29)          110.6647         0.350752   
     45. A(C  14,N   5,H  30)          114.5642         0.350927   
     46. A(H  29,N   5,H  30)          111.4643         0.302373   
     47. A(C   8,C   6,C  12)          127.5036         0.419159   
     48. A(N   2,C   6,C  12)          120.7031         0.397077   
     49. A(N   2,C   6,C   8)          111.7877         0.433248   
     50. A(C  10,C   7,H  19)          112.9707         0.334225   
     51. A(N   2,C   7,H  19)          106.6701         0.325891   
     52. A(C  10,C   7,H  18)          112.1078         0.335140   
     53. A(N   2,C   7,C  10)          109.1718         0.376676   
     54. A(H  18,C   7,H  19)          108.7141         0.291688   
     55. A(N   2,C   7,H  18)          106.8889         0.326776   
     56. A(S   0,C   8,C   6)          111.0158         0.449701   
     57. A(C   6,C   8,C   9)          127.2922         0.417834   
     58. A(S   0,C   8,C   9)          121.6286         0.410506   
     59. A(C   8,C   9,C  13)          110.5415         0.375573   
     60. A(C  13,C   9,H  20)          110.2929         0.325849   
     61. A(H  20,C   9,H  21)          107.5237         0.290010   
     62. A(C   8,C   9,H  21)          108.9897         0.332209   
     63. A(C   8,C   9,H  20)          110.3490         0.331246   
     64. A(C  13,C   9,H  21)          109.0735         0.326791   
     65. A(C  14,C  10,C  15)          115.6085         0.430617   
     66. A(C   7,C  10,C  15)          122.2357         0.410342   
     67. A(C   7,C  10,C  14)          121.8877         0.405585   
     68. A(S   0,C  11,N   2)          113.1787         0.463358   
     69. A(N   2,C  11,H  22)          121.2403         0.363869   
     70. A(S   0,C  11,H  22)          125.5645         0.368169   
     71. A(H  23,C  12,H  25)          108.0577         0.292232   
     72. A(H  24,C  12,H  25)          109.0421         0.291723   
     73. A(C   6,C  12,H  25)          109.2413         0.334642   
     74. A(H  23,C  12,H  24)          109.0027         0.290745   
     75. A(C   6,C  12,H  24)          110.6839         0.332845   
     76. A(C   6,C  12,H  23)          110.7561         0.333456   
     77. A(O   1,C  13,C   9)          108.0916         0.386490   
     78. A(H  26,C  13,H  27)          106.9829         0.287769   
     79. A(C   9,C  13,H  27)          109.1223         0.324911   
     80. A(O   1,C  13,H  27)          111.8635         0.339478   
     81. A(C   9,C  13,H  26)          109.8081         0.325075   
     82. A(O   1,C  13,H  26)          110.9552         0.339653   
     83. A(N   3,C  14,N   5)          117.7514         0.429208   
     84. A(N   5,C  14,C  10)          121.3598         0.417850   
     85. A(N   3,C  14,C  10)          120.8060         0.437184   
     86. A(C  10,C  15,H  28)          120.0190         0.353558   
     87. A(N   4,C  15,H  28)          116.8218         0.359014   
     88. A(N   4,C  15,C  10)          123.1577         0.442900   
     89. A(N   4,C  16,C  17)          118.4645         0.407434   
     90. A(N   3,C  16,C  17)          118.1697         0.408872   
     91. A(N   3,C  16,N   4)          123.3566         0.441803   
     92. A(H  33,C  17,H  34)          108.2796         0.290369   
     93. A(H  32,C  17,H  34)          110.8928         0.291156   
     94. A(C  16,C  17,H  34)          110.0391         0.330532   
     95. A(H  32,C  17,H  33)          108.6558         0.290463   
     96. A(C  16,C  17,H  33)          108.7181         0.329703   
     97. A(C  16,C  17,H  32)          110.1941         0.330645   
     98. D(C  12,C   6,N   2,C   7)      3.6028         0.024016   
     99. D(C  12,C   6,N   2,C  11)   -179.5470         0.024016   
    100. D(C   8,C   6,N   2,C  11)     -0.3468         0.024016   
    101. D(C   8,C   6,N   2,C   7)   -177.1970         0.024016   
    102. D(H  19,C   7,N   2,C   6)   -130.1844         0.013569   
    103. D(C  10,C   7,N   2,C  11)    -69.1528         0.013569   
    104. D(H  18,C   7,N   2,C  11)    169.3827         0.013569   
    105. D(C  10,C   7,N   2,C   6)    107.4435         0.013569   
    106. D(H  18,C   7,N   2,C   6)    -14.0210         0.013569   
    107. D(C   9,C   8,C   6,N   2)    177.1823         0.036542   
    108. D(S   0,C   8,C   6,N   2)      0.0691         0.036542   
    109. D(S   0,C   8,C   6,C  12)    179.2022         0.036542   
    110. D(C   9,C   8,C   6,C  12)     -3.6846         0.036542   
    111. D(C   6,C   8,S   0,C  11)      0.1560         0.004932   
    112. D(C   9,C   8,S   0,C  11)   -177.1469         0.004932   
    113. D(H  21,C   9,C   8,S   0)   -146.0702         0.013800   
    114. D(H  20,C   9,C   8,C   6)    154.9513         0.013800   
    115. D(H  20,C   9,C   8,S   0)    -28.2139         0.013800   
    116. D(C  13,C   9,C   8,C   6)    -82.7730         0.013800   
    117. D(C  13,C   9,C   8,S   0)     94.0619         0.013800   
    118. D(C  15,C  10,C   7,H  18)     26.3376         0.014787   
    119. D(C  15,C  10,C   7,N   2)    -91.9058         0.014787   
    120. D(C  14,C  10,C   7,H  19)    -36.6217         0.014787   
    121. D(C  14,C  10,C   7,H  18)   -159.8732         0.014787   
    122. D(C  14,C  10,C   7,N   2)     81.8833         0.014787   
    123. D(H  22,C  11,N   2,C   6)   -178.1285         0.046388   
    124. D(S   0,C  11,N   2,C   7)    177.4023         0.046388   
    125. D(S   0,C  11,N   2,C   6)      0.4722         0.046388   
    126. D(N   2,C  11,S   0,C   8)     -0.3599         0.006368   
    127. D(H  22,C  11,N   2,C   7)     -1.1984         0.046388   
    128. D(H  22,C  11,S   0,C   8)    178.1693         0.006368   
    129. D(H  25,C  12,C   6,N   2)    178.4130         0.014290   
    130. D(H  24,C  12,C   6,C   8)   -120.7273         0.014290   
    131. D(H  24,C  12,C   6,N   2)     58.3365         0.014290   
    132. D(H  23,C  12,C   6,C   8)    118.2560         0.014290   
    133. D(H  23,C  12,C   6,N   2)    -62.6802         0.014290   
    134. D(H  26,C  13,C   9,H  21)    175.2853         0.012173   
    135. D(H  26,C  13,C   9,H  20)     57.4115         0.012173   
    136. D(H  26,C  13,C   9,C   8)    -64.8971         0.012173   
    137. D(O   1,C  13,C   9,H  21)    -63.5456         0.012173   
    138. D(O   1,C  13,C   9,H  20)    178.5806         0.012173   
    139. D(O   1,C  13,C   9,C   8)     56.2720         0.012173   
    140. D(H  27,C  13,O   1,H  31)     54.8002         0.022213   
    141. D(H  26,C  13,O   1,H  31)    -64.5852         0.022213   
    142. D(C   9,C  13,O   1,H  31)    174.9603         0.022213   
    143. D(N   5,C  14,C  10,C   7)      4.7603         0.023678   
    144. D(N   3,C  14,C  10,C  15)      2.3185         0.023678   
    145. D(N   3,C  14,C  10,C   7)   -171.8571         0.023678   
    146. D(C  10,C  14,N   5,H  30)     48.0880         0.024048   
    147. D(C  10,C  14,N   5,H  29)    175.1296         0.024048   
    148. D(N   3,C  14,N   5,H  30)   -135.1949         0.024048   
    149. D(N   3,C  14,N   5,H  29)     -8.1533         0.024048   
    150. D(C  10,C  14,N   3,C  16)     -1.7246         0.037511   
    151. D(N   5,C  14,C  10,C  15)    178.9359         0.023678   
    152. D(N   5,C  14,N   3,C  16)   -178.4608         0.037511   
    153. D(H  28,C  15,C  10,C  14)    179.2208         0.027214   
    154. D(H  28,C  15,C  10,C   7)     -6.6258         0.027214   
    155. D(N   4,C  15,C  10,C  14)     -1.2461         0.027214   
    156. D(N   4,C  15,C  10,C   7)    172.9073         0.027214   
    157. D(H  28,C  15,N   4,C  16)    179.1382         0.038013   
    158. D(C  10,C  15,N   4,C  16)     -0.4088         0.038013   
    159. D(C  17,C  16,N   3,C  14)   -178.9545         0.034672   
    160. D(N   4,C  16,N   3,C  14)     -0.0753         0.034672   
    161. D(C  17,C  16,N   4,C  15)   -179.9761         0.033200   
    162. D(N   3,C  16,N   4,C  15)      1.1477         0.033200   
    163. D(H  34,C  17,C  16,N   3)   -148.5900         0.012932   
    164. D(H  33,C  17,C  16,N   4)    -85.9560         0.012932   
    165. D(H  33,C  17,C  16,N   3)     92.9792         0.012932   
    166. D(H  32,C  17,C  16,N   4)    155.0647         0.012932   
    167. D(H  32,C  17,C  16,N   3)    -26.0001         0.012932   
    -----------------------------------------------------------------

Number of atoms                         .... 35
Number of degrees of freedom            .... 167


         *************************************************************
         *                GEOMETRY OPTIMIZATION CYCLE   1            *
         *************************************************************
---------------------------------
CARTESIAN COORDINATES (ANGSTROEM)
---------------------------------
  S      0.185091   -1.175092    2.821775
  O      1.830396   -3.044038   -0.492044
  N      0.719026    0.606488    1.134966
  N     -2.969355    1.771478   -0.792010
  N     -1.622269    1.006243   -2.568484
  N     -2.097239    2.513440    1.237109
  C      1.682679   -0.378889    0.918098
  C      0.592432    1.842514    0.326555
  C      1.530473   -1.423968    1.762061
  C      2.327678   -2.682658    1.793518
  C     -0.606245    1.738461   -0.536459
  C     -0.126522    0.313265    2.095029
  C      2.724705   -0.203938   -0.125937
  C      1.805282   -3.669556    0.766163
  C     -1.896789    2.023711   -0.053677
  C     -0.546719    1.234798   -1.829741
  C     -2.818279    1.272317   -2.022141
  C     -4.049423    1.020662   -2.840014
  H      1.505656    1.935539   -0.252328
  H      0.538754    2.672446    1.030698
  H      2.299997   -3.125945    2.794246
  H      3.368039   -2.449376    1.566529
  H     -0.941686    0.976937    2.346044
  H      2.273207   -0.137994   -1.114488
  H      3.308310    0.699984    0.059356
  H      3.387256   -1.060512   -0.115959
  H      0.784531   -3.977871    1.031436
  H      2.429567   -4.574582    0.786078
  H      0.417963    1.000883   -2.279970
  H     -3.073822    2.736393    1.387182
  H     -1.497275    3.287920    1.491159
  H      1.578156   -3.672567   -1.178454
  H     -4.904735    0.848749   -2.188617
  H     -4.249201    1.903090   -3.454088
  H     -3.889637    0.171668   -3.503592

----------------------------
CARTESIAN COORDINATES (A.U.)
----------------------------
  NO LB      ZA    FRAG     MASS         X           Y           Z
   0 S    16.0000    0    32.060    0.349771   -2.220601    5.332383
   1 O     8.0000    0    15.999    3.458947   -5.752399   -0.929828
   2 N     7.0000    0    14.007    1.358763    1.146097    2.144776
   3 N     7.0000    0    14.007   -5.611268    3.347607   -1.496682
   4 N     7.0000    0    14.007   -3.065645    1.901524   -4.853732
   5 N     7.0000    0    14.007   -3.963208    4.749714    2.337798
   6 C     6.0000    0    12.011    3.179803   -0.715996    1.734954
   7 C     6.0000    0    12.011    1.119534    3.481846    0.617099
   8 C     6.0000    0    12.011    2.892175   -2.690909    3.329812
   9 C     6.0000    0    12.011    4.398674   -5.069490    3.389257
  10 C     6.0000    0    12.011   -1.145637    3.285215   -1.013760
  11 C     6.0000    0    12.011   -0.239092    0.591985    3.959031
  12 C     6.0000    0    12.011    5.148947   -0.385387   -0.237986
  13 C     6.0000    0    12.011    3.411488   -6.934455    1.447838
  14 C     6.0000    0    12.011   -3.584412    3.824260   -0.101434
  15 C     6.0000    0    12.011   -1.033150    2.333430   -3.457709
  16 C     6.0000    0    12.011   -5.325775    2.404332   -3.821292
  17 C     6.0000    0    12.011   -7.652300    1.928771   -5.366849
  18 H     1.0000    0     1.008    2.845277    3.657638   -0.476830
  19 H     1.0000    0     1.008    1.018097    5.050191    1.947737
  20 H     1.0000    0     1.008    4.346365   -5.907179    5.280361
  21 H     1.0000    0     1.008    6.364671   -4.628651    2.960310
  22 H     1.0000    0     1.008   -1.779530    1.846143    4.433381
  23 H     1.0000    0     1.008    4.295739   -0.260772   -2.106078
  24 H     1.0000    0     1.008    6.251800    1.322778    0.112167
  25 H     1.0000    0     1.008    6.400986   -2.004078   -0.219131
  26 H     1.0000    0     1.008    1.482549   -7.517086    1.949131
  27 H     1.0000    0     1.008    4.591216   -8.644708    1.485472
  28 H     1.0000    0     1.008    0.789836    1.891395   -4.308519
  29 H     1.0000    0     1.008   -5.808683    5.171034    2.621395
  30 H     1.0000    0     1.008   -2.829439    6.213268    2.817882
  31 H     1.0000    0     1.008    2.982284   -6.940146   -2.226955
  32 H     1.0000    0     1.008   -9.268606    1.603904   -4.135887
  33 H     1.0000    0     1.008   -8.029827    3.596318   -6.527280
  34 H     1.0000    0     1.008   -7.350349    0.324406   -6.620830

--------------------------------
INTERNAL COORDINATES (ANGSTROEM)
--------------------------------
 S      0   0   0     0.000000000000     0.00000000     0.00000000
 O      1   0   0     4.145043560650     0.00000000     0.00000000
 N      1   2   0     2.510864194392    72.44832734     0.00000000
 N      3   1   2     4.321411132362   108.02011918   102.55803589
 N      4   3   1     2.357134939705    76.15891073   239.29346466
 N      4   3   1     2.329896996487    51.53904198    83.28175439
 C      3   1   2     1.395215811586    75.53288365   329.10301240
 C      3   1   2     1.482334149489   160.02892103   142.19612420
 C      7   3   1     1.351898536177   111.78768841   359.95409491
 C      9   7   3     1.490243952430   127.29215501   177.18229017
 C      8   3   1     1.480691121558   109.17183676   295.54387931
 C      3   1   2     1.312498355701    38.10104855   148.65627297
 C      7   3   1     1.485407266634   120.70308693   180.75392953
 C      2   1   3     1.405342074227    58.52226743   159.90119807
 C      4   3   1     1.326331630315    27.48007485   118.20233455
 C      5   4   3     1.324684094668    89.29537161   337.67206383
 C      4   3   1     1.336116129257   102.31697068   250.41090812
 C     17   4   3     1.499321162926   118.16967288   157.92745821
 H      8   3   1     1.085235209868   106.88885250   174.07939630
 H      8   3   1     1.089718457766   106.67014749    57.91598692
 H     10   9   7     1.094863946384   110.34897795   154.95128220
 H     10   9   7     1.090089528535   108.98974263    37.09491559
 H     12   3   1     1.080722838700   121.24029722   181.39928917
 H     13   7   3     1.088776130745   110.75605618   297.31976392
 H     13   7   3     1.091788619545   110.68385954    58.33649299
 H     13   7   3     1.082955210360   109.24131310   178.41302723
 H     14   2   1     1.098799076619   110.95516991    71.82052593
 H     14   2   1     1.099637043103   111.86347646   191.20593388
 H     16   5   4     1.089970180115   116.82181722   179.68160175
 H      6   4   3     1.012889278045    80.69060225   202.17274149
 H      6   4   3     1.012085627595   133.17235625    91.40053185
 H      2   1   3     0.964277999142   139.38958028   244.33027923
 H     18  17   4     1.088774956967   110.19410258   333.99986373
 H     18  17   4     1.093470287168   108.71807700    92.97917289
 H     18  17   4     1.089338263760   110.03909633   211.41004142

---------------------------
INTERNAL COORDINATES (A.U.)
---------------------------
 S      0   0   0     0.000000000000     0.00000000     0.00000000
 O      1   0   0     7.832997142802     0.00000000     0.00000000
 N      1   2   0     4.744845686870    72.44832734     0.00000000
 N      3   1   2     8.166283552243   108.02011918   102.55803589
 N      4   3   1     4.454339496740    76.15891073   239.29346466
 N      4   3   1     4.402867243607    51.53904198    83.28175439
 C      3   1   2     2.636575781615    75.53288365   329.10301240
 C      3   1   2     2.801205581493   160.02892103   142.19612420
 C      7   3   1     2.554717994223   111.78768841   359.95409491
 C      9   7   3     2.816152942826   127.29215501   177.18229017
 C      8   3   1     2.798100708673   109.17183676   295.54387931
 C      3   1   2     2.480262443498    38.10104855   148.65627297
 C      7   3   1     2.807012931275   120.70308693   180.75392953
 C      2   1   3     2.655711644765    58.52226743   159.90119807
 C      4   3   1     2.506403544053    27.48007485   118.20233455
 C      5   4   3     2.503290152883    89.29537161   337.67206383
 C      4   3   1     2.524893567411   102.31697068   250.41090812
 C     17   4   3     2.833306384722   118.16967288   157.92745821
 H      8   3   1     2.050797337539   106.88885250   174.07939630
 H      8   3   1     2.059269448257   106.67014749    57.91598692
 H     10   9   7     2.068993012570   110.34897795   154.95128220
 H     10   9   7     2.059970670386   108.98974263    37.09491559
 H     12   3   1     2.042270191817   121.24029722   181.39928917
 H     13   7   3     2.057488708258   110.75605618   297.31976392
 H     13   7   3     2.063181487073   110.68385954    58.33649299
 H     13   7   3     2.046488762883   109.24131310   178.41302723
 H     14   2   1     2.076429331016   110.95516991    71.82052593
 H     14   2   1     2.078012858180   111.86347646   191.20593388
 H     16   5   4     2.059745134559   116.82181722   179.68160175
 H      6   4   3     1.914083339491    80.69060225   202.17274149
 H      6   4   3     1.912564660233   133.17235625    91.40053185
 H      2   1   3     1.822221335344   139.38958028   244.33027923
 H     18  17   4     2.057486490139   110.19410258   333.99986373
 H     18  17   4     2.066359378327   108.71807700    92.97917289
 H     18  17   4     2.058550985709   110.03909633   211.41004142

---------------------
BASIS SET INFORMATION
---------------------
There are 5 groups of distinct atoms

 Group   1 Type S   : 14s9p1d contracted to 5s4p1d pattern {73211/6111/1}
 Group   2 Type O   : 11s6p2d contracted to 5s3p2d pattern {62111/411/11}
 Group   3 Type N   : 11s6p1d contracted to 5s3p1d pattern {62111/411/1}
 Group   4 Type C   : 11s6p1d contracted to 5s3p1d pattern {62111/411/1}
 Group   5 Type H   : 5s contracted to 3s pattern {311}

Atom   0S    basis set group =>   1
Atom   1O    basis set group =>   2
Atom   2N    basis set group =>   3
Atom   3N    basis set group =>   3
Atom   4N    basis set group =>   3
Atom   5N    basis set group =>   3
Atom   6C    basis set group =>   4
Atom   7C    basis set group =>   4
Atom   8C    basis set group =>   4
Atom   9C    basis set group =>   4
Atom  10C    basis set group =>   4
Atom  11C    basis set group =>   4
Atom  12C    basis set group =>   4
Atom  13C    basis set group =>   4
Atom  14C    basis set group =>   4
Atom  15C    basis set group =>   4
Atom  16C    basis set group =>   4
Atom  17C    basis set group =>   4
Atom  18H    basis set group =>   5
Atom  19H    basis set group =>   5
Atom  20H    basis set group =>   5
Atom  21H    basis set group =>   5
Atom  22H    basis set group =>   5
Atom  23H    basis set group =>   5
Atom  24H    basis set group =>   5
Atom  25H    basis set group =>   5
Atom  26H    basis set group =>   5
Atom  27H    basis set group =>   5
Atom  28H    basis set group =>   5
Atom  29H    basis set group =>   5
Atom  30H    basis set group =>   5
Atom  31H    basis set group =>   5
Atom  32H    basis set group =>   5
Atom  33H    basis set group =>   5
Atom  34H    basis set group =>   5
---------------------------------
AUXILIARY/J BASIS SET INFORMATION
---------------------------------
There are 5 groups of distinct atoms

 Group   1 Type S   : 14s5p5d2f1g contracted to 8s4p3d1f1g pattern {71111111/2111/311/2/1}
 Group   2 Type O   : 8s3p3d contracted to 6s3p3d pattern {311111/111/111}
 Group   3 Type N   : 8s3p3d contracted to 6s3p3d pattern {311111/111/111}
 Group   4 Type C   : 8s3p3d contracted to 6s3p3d pattern {311111/111/111}
 Group   5 Type H   : 5s2p contracted to 3s1p pattern {311/2}

Atom   0S    basis set group =>   1
Atom   1O    basis set group =>   2
Atom   2N    basis set group =>   3
Atom   3N    basis set group =>   3
Atom   4N    basis set group =>   3
Atom   5N    basis set group =>   3
Atom   6C    basis set group =>   4
Atom   7C    basis set group =>   4
Atom   8C    basis set group =>   4
Atom   9C    basis set group =>   4
Atom  10C    basis set group =>   4
Atom  11C    basis set group =>   4
Atom  12C    basis set group =>   4
Atom  13C    basis set group =>   4
Atom  14C    basis set group =>   4
Atom  15C    basis set group =>   4
Atom  16C    basis set group =>   4
Atom  17C    basis set group =>   4
Atom  18H    basis set group =>   5
Atom  19H    basis set group =>   5
Atom  20H    basis set group =>   5
Atom  21H    basis set group =>   5
Atom  22H    basis set group =>   5
Atom  23H    basis set group =>   5
Atom  24H    basis set group =>   5
Atom  25H    basis set group =>   5
Atom  26H    basis set group =>   5
Atom  27H    basis set group =>   5
Atom  28H    basis set group =>   5
Atom  29H    basis set group =>   5
Atom  30H    basis set group =>   5
Atom  31H    basis set group =>   5
Atom  32H    basis set group =>   5
Atom  33H    basis set group =>   5
Atom  34H    basis set group =>   5


           ************************************************************
           *        Program running with 16 parallel MPI-processes    *
           *              working on a common directory               *
           ************************************************************
------------------------------------------------------------------------------
                             ORCA STARTUP CALCULATIONS
                           -- RI-GTO INTEGRALS CHOSEN --
------------------------------------------------------------------------------
------------------------------------------------------------------------------
                   ___                                                        
                  /   \      - P O W E R E D   B Y -                         
                 /     \                                                     
                 |  |  |   _    _      __       _____    __    __             
                 |  |  |  | |  | |    /  \     |  _  \  |  |  /  |          
                  \  \/   | |  | |   /    \    | | | |  |  | /  /          
                 / \  \   | |__| |  /  /\  \   | |_| |  |  |/  /          
                |  |  |   |  __  | /  /__\  \  |    /   |      \           
                |  |  |   | |  | | |   __   |  |    \   |  |\   \          
                \     /   | |  | | |  |  |  |  | |\  \  |  | \   \       
                 \___/    |_|  |_| |__|  |__|  |_| \__\ |__|  \__/        
                                                                              
                      - O R C A' S   B I G   F R I E N D -                    
                                      &                                       
                       - I N T E G R A L  F E E D E R -                       
                                                                              
 v1 FN, 2020, v2 2021, v3 2022-2024                                           
------------------------------------------------------------------------------


----------------------
SHARK INTEGRAL PACKAGE
----------------------

Number of atoms                             ...     35
Number of basis functions                   ...    401
Number of shells                            ...    215
Maximum angular momentum                    ...      2
Integral batch strategy                     ... SHARK/LIBINT Hybrid
RI-J (if used) integral strategy            ... SPLIT-RIJ (Revised 2003 algorithm where possible)
Printlevel                                  ...      1
Contraction scheme used                     ... SEGMENTED contraction
Prescreening option                         ... SCHWARTZ
   Thresh                                   ... 2.500e-11
   Tcut                                     ... 2.500e-12
   Tpresel                                  ... 2.500e-12 
Coulomb Range Separation                    ... NOT USED
Exchange Range Separation                   ... NOT USED
Multipole approximations                    ... NOT USED
Finite Nucleus Model                        ... NOT USED
CABS basis                                  ... NOT available
Auxiliary Coulomb fitting basis             ... AVAILABLE
   # of basis functions in Aux-J            ...    663
   # of shells in Aux-J                     ...    289
   Maximum angular momentum in Aux-J        ...      4
Auxiliary J/K fitting basis                 ... NOT available
Auxiliary Correlation fitting basis         ... NOT available
Auxiliary 'external' fitting basis          ... NOT available

Checking pre-screening integrals            ... done (  0.0 sec) Dimension = 215
Check shell pair data                       ... done (  0.0 sec)
Shell pair information
Shell pair cut-off parameter TPreSel        ...   2.5e-12
Total number of shell pairs                 ...     23220
Shell pairs after pre-screening             ...     17846
Total number of primitive shell pairs       ...     87201
Primitive shell pairs kept                  ...     42736
          la=0 lb=0:   7210 shell pairs
          la=1 lb=0:   6359 shell pairs
          la=1 lb=1:   1385 shell pairs
          la=2 lb=0:   1894 shell pairs
          la=2 lb=1:    861 shell pairs
          la=2 lb=2:    137 shell pairs

Calculating one electron integrals          ... done (  0.0 sec)
Calculating RI/J V-Matrix + Cholesky decomp.... done (  0.0 sec)
Calculating Nuclear repulsion               ... done (  0.0 sec) ENN=   1482.786051397604 Eh

Diagonalization of the overlap matrix:
Smallest eigenvalue                        ... 5.715e-05
Time for diagonalization                   ...    0.014 sec
Threshold for overlap eigenvalues          ... 1.000e-07
Number of eigenvalues below threshold      ... 0
Time for construction of square roots      ...    0.007 sec
Total time needed                          ...    0.023 sec

-------------------
DFT GRID GENERATION
-------------------

General Integration Accuracy     IntAcc      ... 4.959
Radial Grid Type                 RadialGrid  ... OptM3 with GC (2021)
Angular Grid (max. ang.)         AngularGrid ... 6 (Lebedev-590)
Angular grid pruning method      GridPruning ... 4 (adaptive)
Weight generation scheme         WeightScheme... mBecke (2022)
Basis function cutoff            BFCut       ... 1.0000e-11
Integration weight cutoff        WCut        ... 1.0000e-14
Partially contracted basis set               ... off
Rotationally invariant grid construction     ... off
Angular grids for H and He will be reduced by one unit
Diffuse basis detected: some atoms will have their outermost
                        angular grid increased by 1.

Total number of grid points                  ...   403019
Total number of batches                      ...     6314
Average number of points per batch           ...       63
Average number of grid points per atom       ...    11515
Initializing property integral containers    ... done (  0.0 sec)

SHARK setup successfully completed in   3.3 seconds

Maximum memory used throughout the entire STARTUP-calculation: 94.2 MB


           ************************************************************
           *        Program running with 16 parallel MPI-processes    *
           *              working on a common directory               *
           ************************************************************
-------------------------------------------------------------------------------
                                 ORCA GUESS
                   Start orbitals & Density for SCF / CASSCF
-------------------------------------------------------------------------------

------------
SCF SETTINGS
------------
Hamiltonian:
 Density Functional     Method          .... DFT(GTOs)
 Exchange Functional    Exchange        .... B973C
 Correlation Functional Correlation     .... B973C
 Gradients option       PostSCFGGA      .... off
 RI-approximation to the Coulomb term is turned on
   Number of AuxJ basis functions       .... 663


General Settings:
 Integral files         IntName         .... m1_01_Vitamin_B1-QM3_00-B97-3C-TZ
 Hartree-Fock type      HFTyp           .... RHF
 Total Charge           Charge          ....    1
 Multiplicity           Mult            ....    1
 Number of Electrons    NEL             ....  140
 Basis Dimension        Dim             ....  401
 Nuclear Repulsion      ENuc            ....   1482.7860513976 Eh

Convergence Acceleration:
 AO-DIIS                CNVDIIS         .... on
   Start iteration      DIISMaxIt       ....    12
   Startup error        DIISStart       ....  0.200000
   # of expansion vecs  DIISMaxEq       ....     5
   Bias factor          DIISBfac        ....   1.050
   Max. coefficient     DIISMaxC        ....  10.000
 MO-DIIS                CNVKDIIS        .... off
 Trust-Rad. Augm. Hess. CNVTRAH         .... off
 SOSCF                  CNVSOSCF        .... on
   Start iteration      SOSCFMaxIt      ....   150
   Startup grad/error   SOSCFStart      ....  0.003300
   Hessian update       SOSCFHessUp     .... L-BFGS
 Level Shifting         CNVShift        .... on
   Level shift para.    LevelShift      ....    0.2500
   Turn off err/grad.   ShiftErr        ....    0.0010
 Zerner damping         CNVZerner       .... off
 Static damping         CNVDamp         .... on
   Fraction old density DampFac         ....    0.7000
   Max. Damping (<1)    DampMax         ....    0.9800
   Min. Damping (>=0)   DampMin         ....    0.0000
   Turn off err/grad.   DampErr         ....    0.1000

SCF Procedure:
 Maximum # iterations   MaxIter         ....   800
 SCF integral mode      SCFMode         .... Direct
   Integral package                     .... SHARK and LIBINT hybrid scheme
 Reset frequency        DirectResetFreq ....    20
 Integral Threshold     Thresh          ....  2.500e-11 Eh
 Primitive CutOff       TCut            ....  2.500e-12 Eh

Convergence Tolerance:
 Convergence Check Mode ConvCheckMode   .... Total+1el-Energy
 Convergence forced     ConvForced      .... 0
 Energy Change          TolE            ....  1.000e-08 Eh
 1-El. energy change                    ....  1.000e-05 Eh
 Orbital Gradient       TolG            ....  1.000e-05
 Orbital Rotation angle TolX            ....  1.000e-05
 DIIS Error             TolErr          ....  5.000e-07

--------------------------------
INITIAL GUESS: MINIMAL BASIS EHT
--------------------------------
The minimal basis has 111 functions
EHT matrix was diagonalized
Basis set overlap was calculated now projecting the orbitals
Using GuessMode=FMatrix for the initial guess
C*T matrix was formed
Effective Fockian was calculated
Effective Fockian was diagonalized
Initial density was built
                      ------------------
                      INITIAL GUESS DONE
                      ------------------
             **** ENERGY FILE WAS UPDATED (m1_01_Vitamin_B1-QM3_00-B97-3C-TZ.en.tmp) ****
Finished Guess after   0.2 sec
Maximum memory used throughout the entire GUESS-calculation: 32.5 MB


           ************************************************************
           *        Program running with 16 parallel MPI-processes    *
           *              working on a common directory               *
           ************************************************************

-------------------------------------------------------------------------------------------
                                      ORCA LEAN-SCF
                              memory conserving SCF solver
-------------------------------------------------------------------------------------------

----------------------------------------D-I-I-S--------------------------------------------
Iteration    Energy (Eh)           Delta-E    RMSDP     MaxDP     DIISErr   Damp  Time(sec)
-------------------------------------------------------------------------------------------
               ***  Starting incremental Fock matrix formation  ***
    1    -1156.3693288074957763     0.00e+00  4.79e-03  1.97e-01  8.24e-01  0.700   0.6
Warning: op=0 Small HOMO/LUMO gap (  -0.043) - skipping pre-diagonalization
         Will do a full diagonalization
    2    -1157.3330286563443678    -9.64e-01  4.77e-03  2.51e-01  5.61e-01  0.700   0.7
    3    -1157.8777931890779200    -5.45e-01  2.59e-03  9.88e-02  3.81e-01  0.700   0.6
    4    -1158.2428523626338119    -3.65e-01  1.58e-03  5.43e-02  2.57e-01  0.700   0.6
                               ***Turning on AO-DIIS***
    5    -1158.5027364732443402    -2.60e-01  1.24e-03  4.73e-02  1.73e-01  0.700   0.6
    6    -1158.6841152921617777    -1.81e-01  8.82e-04  3.94e-02  1.21e-01  0.700   0.6
    7    -1158.8111923632279741    -1.27e-01  6.03e-04  2.90e-02  8.50e-02  0.700   0.6
    8    -1158.9004505202326527    -8.93e-02  1.41e-03  6.56e-02  5.99e-02  0.000   0.6
    9    -1159.1084034636403430    -2.08e-01  1.95e-04  1.03e-02  7.08e-03  0.000   0.6
   10    -1159.1086708096688653    -2.67e-04  5.20e-05  1.99e-03  4.73e-03  0.000   0.6
                              *** Initializing SOSCF ***
---------------------------------------S-O-S-C-F--------------------------------------
Iteration    Energy (Eh)           Delta-E    RMSDP     MaxDP     MaxGrad    Time(sec)
--------------------------------------------------------------------------------------
   11    -1159.1087827130970709    -1.12e-04  2.57e-05  1.60e-03  8.54e-04     0.6
               *** Restarting incremental Fock matrix formation ***
   12    -1159.1087927983810459    -1.01e-05  3.16e-05  1.63e-03  1.43e-04     0.6
   13    -1159.1087898787243375     2.92e-06  1.75e-05  1.05e-03  2.86e-04     0.6
   14    -1159.1087942162123454    -4.34e-06  7.20e-06  4.75e-04  3.29e-05     0.6
   15    -1159.1087940155978231     2.01e-07  4.78e-06  3.03e-04  8.01e-05     0.6
   16    -1159.1087942904594001    -2.75e-07  3.09e-06  2.31e-04  9.66e-06     0.6
   17    -1159.1087942699698488     2.05e-08  1.99e-06  1.31e-04  1.97e-05     0.6
   18    -1159.1087942784004099    -8.43e-09  1.70e-06  1.15e-04  4.24e-06     0.6
                 **** Energy Check signals convergence ****

               *****************************************************
               *                     SUCCESS                       *
               *           SCF CONVERGED AFTER  18 CYCLES          *
               *****************************************************

             **** ENERGY FILE WAS UPDATED (m1_01_Vitamin_B1-QM3_00-B97-3C-TZ.en.tmp) ****

----------------
TOTAL SCF ENERGY
----------------

Total Energy       :      -1159.10879427840041 Eh          -31540.95380 eV

Components:
Nuclear Repulsion  :       1482.78605139760407 Eh           40348.65974 eV
Electronic Energy  :      -2641.89484567600448 Eh          -71889.61355 eV
One Electron Energy:      -4510.40615062040615 Eh         -122734.39105 eV
Two Electron Energy:       1868.51130494440167 Eh           50844.77751 eV

Virial components:
Potential Energy   :      -2314.76193541413249 Eh          -62987.87450 eV
Kinetic Energy     :       1155.65314113573208 Eh           31446.92070 eV
Virial Ratio       :          2.00299021654480

DFT components:
N(Alpha)           :       70.000010229939 electrons
N(Beta)            :       70.000010229939 electrons
N(Total)           :      140.000020459879 electrons
E(XC)              :     -132.607425623294 Eh       

---------------
SCF CONVERGENCE
---------------

  Last Energy change         ...    8.4306e-09  Tolerance :   1.0000e-08
  Last MAX-Density change    ...    1.1510e-04  Tolerance :   1.0000e-07
  Last RMS-Density change    ...    1.7023e-06  Tolerance :   5.0000e-09
  Last DIIS Error            ...    8.5402e-04  Tolerance :   5.0000e-07
  Last Orbital Gradient      ...    4.2380e-06  Tolerance :   1.0000e-05
  Last Orbital Rotation      ...    1.7196e-05  Tolerance :   1.0000e-05


----------------
ORBITAL ENERGIES
----------------

  NO   OCC          E(Eh)            E(eV) 
   0   2.0000     -88.237073     -2401.0528 
   1   2.0000     -18.869315      -513.4602 
   2   2.0000     -14.236206      -387.3869 
   3   2.0000     -14.134755      -384.6262 
   4   2.0000     -14.096613      -383.5883 
   5   2.0000     -14.090043      -383.4096 
   6   2.0000     -10.127591      -275.5858 
   7   2.0000     -10.100266      -274.8422 
   8   2.0000     -10.099679      -274.8263 
   9   2.0000     -10.097386      -274.7638 
  10   2.0000     -10.089443      -274.5477 
  11   2.0000     -10.074746      -274.1478 
  12   2.0000     -10.066065      -273.9116 
  13   2.0000     -10.057156      -273.6691 
  14   2.0000     -10.043757      -273.3045 
  15   2.0000     -10.036663      -273.1115 
  16   2.0000     -10.034712      -273.0584 
  17   2.0000      -9.978302      -271.5234 
  18   2.0000      -7.927618      -215.7214 
  19   2.0000      -5.957731      -162.1181 
  20   2.0000      -5.952226      -161.9683 
  21   2.0000      -5.950153      -161.9119 
  22   2.0000      -1.110331       -30.2136 
  23   2.0000      -1.071515       -29.1574 
  24   2.0000      -1.035167       -28.1683 
  25   2.0000      -0.980064       -26.6689 
  26   2.0000      -0.949264       -25.8308 
  27   2.0000      -0.914166       -24.8757 
  28   2.0000      -0.893555       -24.3149 
  29   2.0000      -0.874071       -23.7847 
  30   2.0000      -0.836822       -22.7711 
  31   2.0000      -0.809155       -22.0182 
  32   2.0000      -0.781787       -21.2735 
  33   2.0000      -0.757374       -20.6092 
  34   2.0000      -0.732972       -19.9452 
  35   2.0000      -0.713341       -19.4110 
  36   2.0000      -0.695017       -18.9124 
  37   2.0000      -0.676099       -18.3976 
  38   2.0000      -0.660517       -17.9736 
  39   2.0000      -0.634903       -17.2766 
  40   2.0000      -0.627150       -17.0656 
  41   2.0000      -0.605128       -16.4664 
  42   2.0000      -0.605041       -16.4640 
  43   2.0000      -0.583373       -15.8744 
  44   2.0000      -0.579372       -15.7655 
  45   2.0000      -0.563562       -15.3353 
  46   2.0000      -0.548054       -14.9133 
  47   2.0000      -0.543906       -14.8004 
  48   2.0000      -0.532367       -14.4865 
  49   2.0000      -0.524729       -14.2786 
  50   2.0000      -0.512520       -13.9464 
  51   2.0000      -0.508183       -13.8284 
  52   2.0000      -0.504427       -13.7262 
  53   2.0000      -0.500912       -13.6305 
  54   2.0000      -0.497471       -13.5369 
  55   2.0000      -0.491862       -13.3842 
  56   2.0000      -0.483727       -13.1629 
  57   2.0000      -0.467353       -12.7173 
  58   2.0000      -0.463069       -12.6007 
  59   2.0000      -0.457311       -12.4441 
  60   2.0000      -0.440546       -11.9879 
  61   2.0000      -0.428712       -11.6659 
  62   2.0000      -0.423695       -11.5293 
  63   2.0000      -0.418966       -11.4006 
  64   2.0000      -0.377441       -10.2707 
  65   2.0000      -0.373514       -10.1638 
  66   2.0000      -0.367055        -9.9881 
  67   2.0000      -0.352207        -9.5840 
  68   2.0000      -0.341009        -9.2793 
  69   2.0000      -0.316019        -8.5993 
  70   0.0000      -0.231023        -6.2864 
  71   0.0000      -0.179456        -4.8832 
  72   0.0000      -0.171583        -4.6690 
  73   0.0000      -0.166288        -4.5249 
  74   0.0000      -0.161719        -4.4006 
  75   0.0000      -0.113868        -3.0985 
  76   0.0000      -0.099177        -2.6988 
  77   0.0000      -0.087202        -2.3729 
  78   0.0000      -0.083457        -2.2710 
  79   0.0000      -0.072527        -1.9736 
  80   0.0000      -0.061088        -1.6623 
*Only the first 10 virtual orbitals were printed.

                    ********************************
                    * MULLIKEN POPULATION ANALYSIS *
                    ********************************

-----------------------
MULLIKEN ATOMIC CHARGES
-----------------------
   0 S :    0.277753
   1 O :   -0.546930
   2 N :    0.120405
   3 N :   -0.135718
   4 N :   -0.084063
   5 N :   -0.676064
   6 C :   -0.013512
   7 C :   -0.697483
   8 C :    0.020752
   9 C :   -0.424786
  10 C :    0.255157
  11 C :   -0.126243
  12 C :   -0.579516
  13 C :   -0.116723
  14 C :    0.121124
  15 C :   -0.171555
  16 C :    0.096120
  17 C :   -0.542617
  18 H :    0.257535
  19 H :    0.276613
  20 H :    0.214912
  21 H :    0.246920
  22 H :    0.312651
  23 H :    0.187798
  24 H :    0.228252
  25 H :    0.217417
  26 H :    0.157094
  27 H :    0.196608
  28 H :    0.167735
  29 H :    0.366898
  30 H :    0.348033
  31 H :    0.444927
  32 H :    0.195616
  33 H :    0.206999
  34 H :    0.197893
Sum of atomic charges:    1.0000000

--------------------------------
MULLIKEN REDUCED ORBITAL CHARGES
--------------------------------
  0 S s       :     5.888047  s :     5.888047
      pz      :     3.385540  p :     9.715142
      px      :     3.214670
      py      :     3.114931
      dz2     :     0.015422  d :     0.119059
      dxz     :     0.026020
      dyz     :     0.026607
      dx2y2   :     0.036260
      dxy     :     0.014750

  1 O s       :     3.811872  s :     3.811872
      pz      :     1.238901  p :     4.716980
      px      :     1.874695
      py      :     1.603384
      dz2     :    -0.000608  d :     0.018079
      dxz     :     0.001808
      dyz     :     0.010467
      dx2y2   :     0.005266
      dxy     :     0.001146

  2 N s       :     3.258769  s :     3.258769
      pz      :     1.213296  p :     3.562952
      px      :     1.213826
      py      :     1.135830
      dz2     :     0.011413  d :     0.057874
      dxz     :     0.009942
      dyz     :     0.011740
      dx2y2   :     0.012436
      dxy     :     0.012344

  3 N s       :     3.471601  s :     3.471601
      pz      :     1.088785  p :     3.619766
      px      :     1.359886
      py      :     1.171094
      dz2     :     0.009573  d :     0.044352
      dxz     :     0.013081
      dyz     :     0.006814
      dx2y2   :     0.007622
      dxy     :     0.007262

  4 N s       :     3.491261  s :     3.491261
      pz      :     1.408427  p :     3.547577
      px      :     0.953224
      py      :     1.185926
      dz2     :     0.007506  d :     0.045224
      dxz     :     0.017568
      dyz     :     0.006168
      dx2y2   :     0.006784
      dxy     :     0.007198

  5 N s       :     3.507244  s :     3.507244
      pz      :     1.365197  p :     4.133369
      px      :     1.296423
      py      :     1.471748
      dz2     :     0.013023  d :     0.035452
      dxz     :     0.003642
      dyz     :     0.004704
      dx2y2   :     0.005576
      dxy     :     0.008507

  6 C s       :     3.118206  s :     3.118206
      pz      :     0.972780  p :     2.835715
      px      :     0.921540
      py      :     0.941394
      dz2     :     0.011973  d :     0.059591
      dxz     :     0.008559
      dyz     :     0.011707
      dx2y2   :     0.010941
      dxy     :     0.016411

  7 C s       :     3.411066  s :     3.411066
      pz      :     1.145637  p :     3.231204
      px      :     1.162079
      py      :     0.923489
      dz2     :     0.004985  d :     0.055213
      dxz     :     0.012210
      dyz     :     0.017864
      dx2y2   :     0.014688
      dxy     :     0.005467

  8 C s       :     3.001325  s :     3.001325
      pz      :     1.089385  p :     2.931314
      px      :     0.792286
      py      :     1.049643
      dz2     :     0.007436  d :     0.046610
      dxz     :     0.007448
      dyz     :     0.010877
      dx2y2   :     0.012128
      dxy     :     0.008720

  9 C s       :     3.223620  s :     3.223620
      pz      :     1.131515  p :     3.156370
      px      :     1.057389
      py      :     0.967466
      dz2     :     0.010685  d :     0.044796
      dxz     :     0.003588
      dyz     :     0.009884
      dx2y2   :     0.010346
      dxy     :     0.010293

 10 C s       :     3.037250  s :     3.037250
      pz      :     0.856703  p :     2.662083
      px      :     0.757674
      py      :     1.047705
      dz2     :     0.010762  d :     0.045511
      dxz     :     0.015113
      dyz     :     0.006065
      dx2y2   :     0.008177
      dxy     :     0.005394

 11 C s       :     3.196716  s :     3.196716
      pz      :     0.903388  p :     2.876562
      px      :     1.020521
      py      :     0.952653
      dz2     :     0.012638  d :     0.052965
      dxz     :     0.010459
      dyz     :     0.008663
      dx2y2   :     0.008823
      dxy     :     0.012382

 12 C s       :     3.296703  s :     3.296703
      pz      :     1.021788  p :     3.245076
      px      :     1.044477
      py      :     1.178812
      dz2     :     0.010228  d :     0.037737
      dxz     :     0.010569
      dyz     :     0.001902
      dx2y2   :     0.004155
      dxy     :     0.010883

 13 C s       :     3.216832  s :     3.216832
      pz      :     0.731558  p :     2.833622
      px      :     1.099298
      py      :     1.002766
      dz2     :     0.016724  d :     0.066268
      dxz     :     0.013252
      dyz     :     0.015280
      dx2y2   :     0.008161
      dxy     :     0.012852

 14 C s       :     3.052258  s :     3.052258
      pz      :     0.861702  p :     2.745753
      px      :     1.007817
      py      :     0.876234
      dz2     :     0.023749  d :     0.080865
      dxz     :     0.020039
      dyz     :     0.012539
      dx2y2   :     0.012659
      dxy     :     0.011880

 15 C s       :     3.244522  s :     3.244522
      pz      :     0.935543  p :     2.867206
      px      :     1.021465
      py      :     0.910198
      dz2     :     0.016267  d :     0.059826
      dxz     :     0.016969
      dyz     :     0.008336
      dx2y2   :     0.010998
      dxy     :     0.007255

 16 C s       :     3.163887  s :     3.163887
      pz      :     0.914482  p :     2.659001
      px      :     0.901958
      py      :     0.842561
      dz2     :     0.019719  d :     0.080992
      dxz     :     0.026789
      dyz     :     0.011085
      dx2y2   :     0.011679
      dxy     :     0.011720

 17 C s       :     3.307741  s :     3.307741
      pz      :     1.080406  p :     3.199275
      px      :     0.988817
      py      :     1.130053
      dz2     :     0.001326  d :     0.035601
      dxz     :     0.011389
      dyz     :     0.010446
      dx2y2   :     0.009407
      dxy     :     0.003034

 18 H s       :     0.742465  s :     0.742465

 19 H s       :     0.723387  s :     0.723387

 20 H s       :     0.785088  s :     0.785088

 21 H s       :     0.753080  s :     0.753080

 22 H s       :     0.687349  s :     0.687349

 23 H s       :     0.812202  s :     0.812202

 24 H s       :     0.771748  s :     0.771748

 25 H s       :     0.782583  s :     0.782583

 26 H s       :     0.842906  s :     0.842906

 27 H s       :     0.803392  s :     0.803392

 28 H s       :     0.832265  s :     0.832265

 29 H s       :     0.633102  s :     0.633102

 30 H s       :     0.651967  s :     0.651967

 31 H s       :     0.555073  s :     0.555073

 32 H s       :     0.804384  s :     0.804384

 33 H s       :     0.793001  s :     0.793001

 34 H s       :     0.802107  s :     0.802107



                     *******************************
                     * LOEWDIN POPULATION ANALYSIS *
                     *******************************

----------------------
LOEWDIN ATOMIC CHARGES
----------------------
   0 S :    0.730248
   1 O :   -0.765305
   2 N :   -0.041755
   3 N :   -0.184541
   4 N :   -0.179508
   5 N :   -0.453143
   6 C :   -0.002012
   7 C :   -0.154250
   8 C :   -0.236260
   9 C :   -0.256739
  10 C :   -0.149780
  11 C :   -0.256185
  12 C :   -0.395665
  13 C :    0.033080
  14 C :    0.091136
  15 C :   -0.021657
  16 C :    0.091656
  17 C :   -0.409211
  18 H :    0.196113
  19 H :    0.183003
  20 H :    0.186168
  21 H :    0.191827
  22 H :    0.216822
  23 H :    0.185281
  24 H :    0.179353
  25 H :    0.199541
  26 H :    0.168219
  27 H :    0.179402
  28 H :    0.165582
  29 H :    0.297252
  30 H :    0.287441
  31 H :    0.375258
  32 H :    0.177220
  33 H :    0.190652
  34 H :    0.180755

-------------------------------
LOEWDIN REDUCED ORBITAL CHARGES
-------------------------------
  0 S s       :     5.352197  s :     5.352197
      pz      :     3.397356  p :     9.781987
      px      :     3.226764
      py      :     3.157867
      dz2     :     0.015717  d :     0.135568
      dxz     :     0.029895
      dyz     :     0.029868
      dx2y2   :     0.042627
      dxy     :     0.017462

  1 O s       :     3.546853  s :     3.546853
      pz      :     1.340960  p :     4.866431
      px      :     1.884618
      py      :     1.640853
      dz2     :     0.089746  d :     0.352021
      dxz     :     0.073145
      dyz     :     0.117857
      dx2y2   :     0.030931
      dxy     :     0.040342

  2 N s       :     3.082686  s :     3.082686
      pz      :     1.292880  p :     3.844117
      px      :     1.285772
      py      :     1.265465
      dz2     :     0.021782  d :     0.114952
      dxz     :     0.020464
      dyz     :     0.023716
      dx2y2   :     0.024370
      dxy     :     0.024619

  3 N s       :     3.213438  s :     3.213438
      pz      :     1.217403  p :     3.889137
      px      :     1.471370
      py      :     1.200364
      dz2     :     0.019604  d :     0.081965
      dxz     :     0.025203
      dyz     :     0.014110
      dx2y2   :     0.012794
      dxy     :     0.010255

  4 N s       :     3.228944  s :     3.228944
      pz      :     1.492090  p :     3.866775
      px      :     1.170351
      py      :     1.204335
      dz2     :     0.011722  d :     0.083788
      dxz     :     0.033744
      dyz     :     0.007485
      dx2y2   :     0.016458
      dxy     :     0.014379

  5 N s       :     3.235832  s :     3.235832
      pz      :     1.403842  p :     4.161612
      px      :     1.291169
      py      :     1.466601
      dz2     :     0.020052  d :     0.055700
      dxz     :     0.007531
      dyz     :     0.008120
      dx2y2   :     0.008176
      dxy     :     0.011820

  6 C s       :     2.841709  s :     2.841709
      pz      :     1.058609  p :     3.034226
      px      :     0.990327
      py      :     0.985289
      dz2     :     0.023460  d :     0.126077
      dxz     :     0.017568
      dyz     :     0.025662
      dx2y2   :     0.022856
      dxy     :     0.036531

  7 C s       :     2.906679  s :     2.906679
      pz      :     1.063470  p :     3.146255
      px      :     1.128422
      py      :     0.954364
      dz2     :     0.008486  d :     0.101316
      dxz     :     0.021584
      dyz     :     0.034276
      dx2y2   :     0.027414
      dxy     :     0.009557

  8 C s       :     2.922542  s :     2.922542
      pz      :     1.063452  p :     3.216602
      px      :     1.058665
      py      :     1.094485
      dz2     :     0.014708  d :     0.097116
      dxz     :     0.017989
      dyz     :     0.022219
      dx2y2   :     0.024792
      dxy     :     0.017407

  9 C s       :     2.917570  s :     2.917570
      pz      :     1.102225  p :     3.259388
      px      :     1.111240
      py      :     1.045923
      dz2     :     0.017742  d :     0.079781
      dxz     :     0.005658
      dyz     :     0.017903
      dx2y2   :     0.018394
      dxy     :     0.020084

 10 C s       :     2.855985  s :     2.855985
      pz      :     1.084863  p :     3.196934
      px      :     1.035242
      py      :     1.076830
      dz2     :     0.023587  d :     0.096861
      dxz     :     0.033423
      dyz     :     0.011872
      dx2y2   :     0.017650
      dxy     :     0.010330

 11 C s       :     2.966289  s :     2.966289
      pz      :     1.014525  p :     3.179468
      px      :     1.061733
      py      :     1.103209
      dz2     :     0.024096  d :     0.110429
      dxz     :     0.023783
      dyz     :     0.020964
      dx2y2   :     0.019829
      dxy     :     0.021757

 12 C s       :     2.965645  s :     2.965645
      pz      :     1.095873  p :     3.368240
      px      :     1.105874
      py      :     1.166493
      dz2     :     0.017013  d :     0.061780
      dxz     :     0.018296
      dyz     :     0.002836
      dx2y2   :     0.006724
      dxy     :     0.016911

 13 C s       :     2.863974  s :     2.863974
      pz      :     0.867451  p :     2.970748
      px      :     1.082591
      py      :     1.020706
      dz2     :     0.034251  d :     0.132197
      dxz     :     0.025865
      dyz     :     0.036396
      dx2y2   :     0.013679
      dxy     :     0.022007

 14 C s       :     2.815776  s :     2.815776
      pz      :     0.950672  p :     2.920512
      px      :     1.063692
      py      :     0.906148
      dz2     :     0.052745  d :     0.172576
      dxz     :     0.043246
      dyz     :     0.024935
      dx2y2   :     0.029220
      dxy     :     0.022430

 15 C s       :     2.886973  s :     2.886973
      pz      :     1.035732  p :     3.012845
      px      :     1.062198
      py      :     0.914914
      dz2     :     0.035035  d :     0.121839
      dxz     :     0.036347
      dyz     :     0.017503
      dx2y2   :     0.020111
      dxy     :     0.012842

 16 C s       :     2.837810  s :     2.837810
      pz      :     0.999291  p :     2.899122
      px      :     1.043119
      py      :     0.856712
      dz2     :     0.041074  d :     0.171412
      dxz     :     0.061332
      dyz     :     0.022968
      dx2y2   :     0.023648
      dxy     :     0.022390

 17 C s       :     2.986355  s :     2.986355
      pz      :     1.127938  p :     3.365422
      px      :     1.082683
      py      :     1.154801
      dz2     :     0.002044  d :     0.057434
      dxz     :     0.019284
      dyz     :     0.015800
      dx2y2   :     0.015185
      dxy     :     0.005120

 18 H s       :     0.803887  s :     0.803887

 19 H s       :     0.816997  s :     0.816997

 20 H s       :     0.813832  s :     0.813832

 21 H s       :     0.808173  s :     0.808173

 22 H s       :     0.783178  s :     0.783178

 23 H s       :     0.814719  s :     0.814719

 24 H s       :     0.820647  s :     0.820647

 25 H s       :     0.800459  s :     0.800459

 26 H s       :     0.831781  s :     0.831781

 27 H s       :     0.820598  s :     0.820598

 28 H s       :     0.834418  s :     0.834418

 29 H s       :     0.702748  s :     0.702748

 30 H s       :     0.712559  s :     0.712559

 31 H s       :     0.624742  s :     0.624742

 32 H s       :     0.822780  s :     0.822780

 33 H s       :     0.809348  s :     0.809348

 34 H s       :     0.819245  s :     0.819245



                      *****************************
                      * MAYER POPULATION ANALYSIS *
                      *****************************

  NA   - Mulliken gross atomic population
  ZA   - Total nuclear charge
  QA   - Mulliken gross atomic charge
  VA   - Mayer's total valence
  BVA  - Mayer's bonded valence
  FA   - Mayer's free valence

  ATOM       NA         ZA         QA         VA         BVA        FA
  0 S     15.7222    16.0000     0.2778     2.6699     2.6699     0.0000
  1 O      8.5469     8.0000    -0.5469     1.7512     1.7512    -0.0000
  2 N      6.8796     7.0000     0.1204     3.2621     3.2621     0.0000
  3 N      7.1357     7.0000    -0.1357     3.1639     3.1639     0.0000
  4 N      7.0841     7.0000    -0.0841     3.1174     3.1174     0.0000
  5 N      7.6761     7.0000    -0.6761     2.8957     2.8957     0.0000
  6 C      6.0135     6.0000    -0.0135     4.2185     4.2185    -0.0000
  7 C      6.6975     6.0000    -0.6975     3.6986     3.6986     0.0000
  8 C      5.9792     6.0000     0.0208     3.5733     3.5733     0.0000
  9 C      6.4248     6.0000    -0.4248     3.7675     3.7675    -0.0000
 10 C      5.7448     6.0000     0.2552     3.1753     3.1753     0.0000
 11 C      6.1262     6.0000    -0.1262     3.8105     3.8105    -0.0000
 12 C      6.5795     6.0000    -0.5795     3.8777     3.8777    -0.0000
 13 C      6.1167     6.0000    -0.1167     3.7242     3.7242     0.0000
 14 C      5.8789     6.0000     0.1211     4.0515     4.0515    -0.0000
 15 C      6.1716     6.0000    -0.1716     4.0649     4.0649     0.0000
 16 C      5.9039     6.0000     0.0961     3.9443     3.9443    -0.0000
 17 C      6.5426     6.0000    -0.5426     3.7110     3.7110     0.0000
 18 H      0.7425     1.0000     0.2575     0.9358     0.9358    -0.0000
 19 H      0.7234     1.0000     0.2766     0.8878     0.8878     0.0000
 20 H      0.7851     1.0000     0.2149     0.9466     0.9466    -0.0000
 21 H      0.7531     1.0000     0.2469     0.9136     0.9136    -0.0000
 22 H      0.6873     1.0000     0.3127     0.8628     0.8628    -0.0000
 23 H      0.8122     1.0000     0.1878     0.9534     0.9534     0.0000
 24 H      0.7717     1.0000     0.2283     0.9155     0.9155     0.0000
 25 H      0.7826     1.0000     0.2174     0.9628     0.9628     0.0000
 26 H      0.8429     1.0000     0.1571     0.9453     0.9453     0.0000
 27 H      0.8034     1.0000     0.1966     0.9356     0.9356    -0.0000
 28 H      0.8323     1.0000     0.1677     0.9472     0.9472     0.0000
 29 H      0.6331     1.0000     0.3669     0.8634     0.8634     0.0000
 30 H      0.6520     1.0000     0.3480     0.8538     0.8538     0.0000
 31 H      0.5551     1.0000     0.4449     0.7700     0.7700     0.0000
 32 H      0.8044     1.0000     0.1956     0.9515     0.9515     0.0000
 33 H      0.7930     1.0000     0.2070     0.9447     0.9447     0.0000
 34 H      0.8021     1.0000     0.1979     0.9502     0.9502     0.0000

  Mayer bond orders larger than 0.100000
B(  0-S ,  6-C ) :   0.1015 B(  0-S ,  8-C ) :   1.1028 B(  0-S , 11-C ) :   1.3532 
B(  1-O ,  9-C ) :  -0.1031 B(  1-O , 13-C ) :   0.9852 B(  1-O , 31-H ) :   0.7531 
B(  2-N ,  6-C ) :   1.2074 B(  2-N ,  7-C ) :   0.7503 B(  2-N , 11-C ) :   1.4075 
B(  3-N , 14-C ) :   1.5739 B(  3-N , 16-C ) :   1.4858 B(  4-N , 15-C ) :   1.5897 
B(  4-N , 16-C ) :   1.4694 B(  5-N , 14-C ) :   1.1473 B(  5-N , 29-H ) :   0.8244 
B(  5-N , 30-H ) :   0.8234 B(  6-C ,  8-C ) :   1.7363 B(  6-C , 12-C ) :   0.9587 
B(  7-C , 10-C ) :   0.6663 B(  7-C , 18-H ) :   0.9350 B(  7-C , 19-H ) :   0.9545 
[...]
 39:    758.59   0.002218   11.21  0.000912  ( 0.003450 -0.006240  0.029354)
 40:    760.91   0.002749   13.89  0.001127  ( 0.006136 -0.027418 -0.018381)
 41:    776.25   0.003513   17.76  0.001412  (-0.006549  0.025798 -0.026534)
 42:    800.72   0.001753    8.86  0.000683  ( 0.024784 -0.007672 -0.003175)
 43:    821.75   0.002099   10.61  0.000797  (-0.025495 -0.009424 -0.007634)
 44:    878.23   0.002960   14.96  0.001052  ( 0.005770  0.017024 -0.026997)
 45:    924.70   0.002486   12.56  0.000839  (-0.008520 -0.017017  0.021837)
 46:    935.48   0.000538    2.72  0.000180  ( 0.002673 -0.013079 -0.001179)
 47:    943.19   0.001741    8.80  0.000576  (-0.007187 -0.002827  0.022727)
 48:    950.12   0.000767    3.88  0.000252  ( 0.002365 -0.012190  0.009883)
 49:    978.83   0.001478    7.47  0.000471  (-0.004860  0.019615 -0.007923)
 50:    983.62   0.003144   15.89  0.000998  ( 0.014757  0.004248  0.027600)
 51:   1016.61   0.001481    7.49  0.000455  ( 0.016728 -0.010997 -0.007343)
 52:   1046.80   0.005222   26.39  0.001557  ( 0.012587 -0.031035  0.020860)
 53:   1051.80   0.000911    4.60  0.000270  ( 0.006556  0.001173 -0.015028)
 54:   1056.26   0.003190   16.12  0.000943  (-0.012787  0.023345 -0.015299)
 55:   1073.65   0.008713   44.03  0.002533  (-0.033296 -0.000665  0.037729)
 56:   1097.33   0.003158   15.96  0.000898  (-0.014888 -0.018103  0.018677)
 57:   1117.15   0.001746    8.82  0.000488  (-0.012814  0.002157 -0.017855)
 58:   1167.77   0.006211   31.39  0.001660  ( 0.024966 -0.029954  0.011793)
 59:   1221.76   0.001886    9.53  0.000482  ( 0.015567  0.005399 -0.014495)
 60:   1224.50   0.003734   18.87  0.000952  ( 0.025818  0.006532 -0.015569)
 61:   1234.68   0.006944   35.09  0.001755  ( 0.018992 -0.030306  0.021816)
 62:   1243.73   0.002036   10.29  0.000511  (-0.020113  0.007014 -0.007560)
 63:   1247.93   0.001566    7.91  0.000392  (-0.018034 -0.007317  0.003583)
 64:   1297.69   0.005986   30.25  0.001439  ( 0.025295 -0.021528 -0.018337)
 65:   1306.31   0.000436    2.20  0.000104  (-0.008772  0.000379 -0.005209)
 66:   1310.70   0.002281   11.52  0.000543  ( 0.016870  0.002345 -0.015901)
 67:   1316.96   0.011791   59.59  0.002794  ( 0.014118 -0.037441  0.034537)
 68:   1353.42   0.000620    3.14  0.000143  ( 0.002037 -0.008061  0.008598)
 69:   1358.30   0.003034   15.33  0.000697  ( 0.007957 -0.025166 -0.000570)
 70:   1365.73   0.008238   41.63  0.001882  (-0.034334  0.019352 -0.018138)
 71:   1404.32   0.001188    6.00  0.000264  (-0.011055  0.011580 -0.002775)
 72:   1428.37   0.004356   22.02  0.000952  ( 0.030802 -0.000580  0.001636)
 73:   1430.27   0.004427   22.37  0.000966  (-0.023004  0.006842 -0.019747)
 74:   1440.34   0.003078   15.56  0.000667  (-0.013930  0.019161 -0.010286)
 75:   1456.56   0.036458  184.25  0.007811  (-0.065937  0.017719 -0.056120)
 76:   1472.44   0.001119    5.65  0.000237  (-0.010257  0.009732  0.006102)
 77:   1475.74   0.003626   18.32  0.000767  ( 0.015324  0.004481  0.022623)
 78:   1481.20   0.010511   53.12  0.002215  ( 0.024617  0.023410  0.032567)
 79:   1482.50   0.003513   17.76  0.000740  ( 0.008927 -0.012290 -0.022558)
 80:   1490.97   0.003514   17.76  0.000736  (-0.019626  0.006122  0.017688)
 81:   1493.89   0.000597    3.02  0.000125  ( 0.010328 -0.002840  0.003162)
 82:   1510.76   0.003417   17.27  0.000706  (-0.004490  0.015711 -0.020948)
 83:   1523.83   0.001046    5.29  0.000214  ( 0.000697  0.013624  0.005300)
 84:   1569.69   0.031747  160.44  0.006311  ( 0.025396 -0.034847 -0.066725)
 85:   1611.84   0.023991  121.24  0.004645  ( 0.046414 -0.027537  0.041620)
 86:   1613.39   0.039106  197.63  0.007564  (-0.080295  0.016752 -0.028914)
 87:   1665.25   0.041191  208.16  0.007719  ( 0.029417  0.042177  0.071238)
 88:   2954.53   0.008993   45.45  0.000950  ( 0.014437  0.025653 -0.009129)
 89:   3005.35   0.006451   32.60  0.000670  ( 0.018366 -0.011106  0.014464)
 90:   3014.91   0.000093    0.47  0.000010  ( 0.000397 -0.002739  0.001385)
 91:   3016.71   0.001261    6.37  0.000130  ( 0.001151 -0.010831  0.003445)
 92:   3026.48   0.002378   12.02  0.000245  (-0.014605 -0.005142 -0.002348)
 93:   3035.43   0.002630   13.29  0.000270  ( 0.008816 -0.001751  0.013768)
 94:   3072.96   0.000066    0.33  0.000007  ( 0.002081 -0.001541 -0.000151)
 95:   3074.19   0.001151    5.82  0.000117  (-0.001002  0.008700  0.006334)
 96:   3078.65   0.001059    5.35  0.000107  ( 0.007041  0.007300 -0.002108)
 97:   3081.92   0.004768   24.09  0.000483  ( 0.017028 -0.010105 -0.009524)
 98:   3084.31   0.001216    6.15  0.000123  ( 0.009584  0.005587 -0.000047)
 99:   3134.90   0.001171    5.92  0.000117  ( 0.006534 -0.005063 -0.006946)
100:   3149.79   0.000364    1.84  0.000036  ( 0.004606 -0.002363  0.003048)
101:   3240.98   0.007249   36.63  0.000698  (-0.022148  0.010636 -0.009711)
102:   3517.89   0.009707   49.06  0.000861  (-0.007120  0.019595  0.020650)
103:   3633.74   0.004658   23.54  0.000400  ( 0.018315 -0.007517 -0.002844)
104:   3763.54   0.010385   52.48  0.000861  (-0.016945  0.016560  0.017313)

* The epsilon (eps) is given for a Dirac delta lineshape.
** The dipole moment derivative (T) already includes vibrational overlap.

The first frequency considered to be a vibration is 6
The total number of vibrations considered is 99


--------------------------
THERMOCHEMISTRY AT 298.15K
--------------------------

Temperature         ...   298.15 K
Pressure            ...     1.00 atm
Total Mass          ...   265.35 AMU
Quasi RRHO          ...     True
Cut-Off Frequency   ...     1.00 cm^-1

Throughout the following assumptions are being made:
  (1) The electronic state is orbitally nondegenerate
  (2) There are no thermally accessible electronically excited states
  (3) Hindered rotations indicated by low frequency modes are not
      treated as such but are treated as vibrations and this may
      cause some error
  (4) All equations used are the standard statistical mechanics
      equations for an ideal gas
  (5) All vibrations are strictly harmonic

freq.      17.72  E(vib)   ...       0.57 
freq.      35.69  E(vib)   ...       0.54 
freq.      42.44  E(vib)   ...       0.53 
freq.      46.51  E(vib)   ...       0.53 
freq.      57.93  E(vib)   ...       0.51 
freq.      71.07  E(vib)   ...       0.50 
freq.     112.58  E(vib)   ...       0.45 
freq.     118.86  E(vib)   ...       0.44 
freq.     145.06  E(vib)   ...       0.41 
freq.     183.30  E(vib)   ...       0.37 
freq.     203.65  E(vib)   ...       0.35 
freq.     205.51  E(vib)   ...       0.35 
freq.     228.53  E(vib)   ...       0.32 
freq.     274.78  E(vib)   ...       0.28 
freq.     291.25  E(vib)   ...       0.27 
freq.     299.67  E(vib)   ...       0.26 
freq.     316.82  E(vib)   ...       0.25 
freq.     328.50  E(vib)   ...       0.24 
freq.     337.82  E(vib)   ...       0.24 
freq.     408.15  E(vib)   ...       0.19 
freq.     413.47  E(vib)   ...       0.19 
freq.     439.07  E(vib)   ...       0.17 
freq.     458.96  E(vib)   ...       0.16 
freq.     492.18  E(vib)   ...       0.14 
freq.     513.87  E(vib)   ...       0.13 
freq.     541.03  E(vib)   ...       0.12 
freq.     573.00  E(vib)   ...       0.11 
freq.     574.62  E(vib)   ...       0.11 
freq.     596.03  E(vib)   ...       0.10 
freq.     614.04  E(vib)   ...       0.10 
freq.     642.94  E(vib)   ...       0.09 
freq.     653.66  E(vib)   ...       0.08 
freq.     674.29  E(vib)   ...       0.08 
freq.     758.59  E(vib)   ...       0.06 
freq.     760.91  E(vib)   ...       0.06 
freq.     776.25  E(vib)   ...       0.05 
freq.     800.72  E(vib)   ...       0.05 
freq.     821.75  E(vib)   ...       0.05 
freq.     878.23  E(vib)   ...       0.04 
freq.     924.70  E(vib)   ...       0.03 
freq.     935.48  E(vib)   ...       0.03 
freq.     943.19  E(vib)   ...       0.03 
freq.     950.12  E(vib)   ...       0.03 
freq.     978.83  E(vib)   ...       0.03 
freq.     983.62  E(vib)   ...       0.02 
freq.    1016.61  E(vib)   ...       0.02 
freq.    1046.80  E(vib)   ...       0.02 
freq.    1051.80  E(vib)   ...       0.02 
freq.    1056.26  E(vib)   ...       0.02 
freq.    1073.65  E(vib)   ...       0.02 
freq.    1097.33  E(vib)   ...       0.02 
freq.    1117.15  E(vib)   ...       0.01 
freq.    1167.77  E(vib)   ...       0.01 
freq.    1221.76  E(vib)   ...       0.01 
freq.    1224.50  E(vib)   ...       0.01 
freq.    1234.68  E(vib)   ...       0.01 
freq.    1243.73  E(vib)   ...       0.01 
freq.    1247.93  E(vib)   ...       0.01 
freq.    1297.69  E(vib)   ...       0.01 
freq.    1306.31  E(vib)   ...       0.01 
freq.    1310.70  E(vib)   ...       0.01 
freq.    1316.96  E(vib)   ...       0.01 
freq.    1353.42  E(vib)   ...       0.01 
freq.    1358.30  E(vib)   ...       0.01 
freq.    1365.73  E(vib)   ...       0.01 
freq.    1404.32  E(vib)   ...       0.00 
freq.    1428.37  E(vib)   ...       0.00 
freq.    1430.27  E(vib)   ...       0.00 
freq.    1440.34  E(vib)   ...       0.00 
freq.    1456.56  E(vib)   ...       0.00 
freq.    1472.44  E(vib)   ...       0.00 
freq.    1475.74  E(vib)   ...       0.00 
freq.    1481.20  E(vib)   ...       0.00 
freq.    1482.50  E(vib)   ...       0.00 
freq.    1490.97  E(vib)   ...       0.00 
freq.    1493.89  E(vib)   ...       0.00 
freq.    1510.76  E(vib)   ...       0.00 
freq.    1523.83  E(vib)   ...       0.00 
freq.    1569.69  E(vib)   ...       0.00 
freq.    1611.84  E(vib)   ...       0.00 
freq.    1613.39  E(vib)   ...       0.00 
freq.    1665.25  E(vib)   ...       0.00 
freq.    2954.53  E(vib)   ...       0.00 
freq.    3005.35  E(vib)   ...       0.00 
freq.    3014.91  E(vib)   ...       0.00 
freq.    3016.71  E(vib)   ...       0.00 
freq.    3026.48  E(vib)   ...       0.00 
freq.    3035.43  E(vib)   ...       0.00 
freq.    3072.96  E(vib)   ...       0.00 
freq.    3074.19  E(vib)   ...       0.00 
freq.    3078.65  E(vib)   ...       0.00 
freq.    3081.92  E(vib)   ...       0.00 
freq.    3084.31  E(vib)   ...       0.00 
freq.    3134.90  E(vib)   ...       0.00 
freq.    3149.79  E(vib)   ...       0.00 
freq.    3240.98  E(vib)   ...       0.00 
freq.    3517.89  E(vib)   ...       0.00 
freq.    3633.74  E(vib)   ...       0.00 
freq.    3763.54  E(vib)   ...       0.00 

------------
INNER ENERGY
------------

The inner energy is: U= E(el) + E(ZPE) + E(vib) + E(rot) + E(trans)
    E(el)   - is the total energy from the electronic structure calculation
              = E(kin-el) + E(nuc-el) + E(el-el) + E(nuc-nuc)
    E(ZPE)  - the the zero temperature vibrational energy from the frequency calculation
    E(vib)  - the the finite temperature correction to E(ZPE) due to population
              of excited vibrational states
    E(rot)  - is the rotational thermal energy
    E(trans)- is the translational thermal energy

Summary of contributions to the inner energy U:
Electronic energy                ...  -1159.31805413 Eh
Zero point energy                ...      0.28470731 Eh     178.66 kcal/mol
Thermal vibrational correction   ...      0.01582840 Eh       9.93 kcal/mol
Thermal rotational correction    ...      0.00141627 Eh       0.89 kcal/mol
Thermal translational correction ...      0.00141627 Eh       0.89 kcal/mol
-----------------------------------------------------------------------
Total thermal energy                  -1159.01468588 Eh


Summary of corrections to the electronic energy:
(perhaps to be used in another calculation)
Total thermal correction                  0.01866094 Eh      11.71 kcal/mol
Non-thermal (ZPE) correction              0.28470731 Eh     178.66 kcal/mol
-----------------------------------------------------------------------
Total correction                          0.30336825 Eh     190.37 kcal/mol


--------
ENTHALPY
--------

The enthalpy is H = U + kB*T
                kB is Boltzmann's constant
Total thermal energy              ...  -1159.01468588 Eh 
Thermal Enthalpy correction       ...      0.00094421 Eh       0.59 kcal/mol
-----------------------------------------------------------------------
Total Enthalpy                    ...  -1159.01374167 Eh


Note: Only C1 symmetry has been detected, increase convergence thresholds 
      if your molecule has a higher symmetry. Symmetry factor of 1.0 is   
      used for the rotational entropy correction. 
 

Note: Rotational entropy computed according to Herzberg 
Infrared and Raman Spectra, Chapter V,1, Van Nostrand Reinhold, 1945 
Point Group:  C1, Symmetry Number:   1  
Rotational constants in cm-1:     0.032001     0.005846     0.005716 

Vibrational entropy computed according to the QRRHO of S. Grimme
Chem.Eur.J. 2012 18 9955 using a reference frequency of 100.0 cm-1


-------
ENTROPY
-------

The entropy contributions are T*S = T*(S(el)+S(vib)+S(rot)+S(trans))
     S(el)   - electronic entropy
     S(vib)  - vibrational entropy
     S(rot)  - rotational entropy
     S(trans)- translational entropy
The entropies will be listed as multiplied by the temperature to get
units of energy

Electronic entropy                ...      0.00000000 Eh      0.00 kcal/mol
Vibrational entropy               ...      0.02827581 Eh     17.74 kcal/mol
Rotational entropy                ...      0.01600137 Eh     10.04 kcal/mol
Translational entropy             ...      0.02025338 Eh     12.71 kcal/mol
-----------------------------------------------------------------------
Final entropy term                ...      0.06453056 Eh     40.49 kcal/mol

In case the symmetry of your molecule has not been determined correctly
or in case you have a reason to use a different symmetry number we print 
out the resulting rotational entropy values for sn=1,12:

 non-linear molecules -----------------------------------
|  sn= 1 | S(rot)=       0.01600137 Eh     10.04 kcal/mol|
|  sn= 2 | S(rot)=       0.01534692 Eh      9.63 kcal/mol|
|  sn= 3 | S(rot)=       0.01496409 Eh      9.39 kcal/mol|
|  sn= 4 | S(rot)=       0.01469246 Eh      9.22 kcal/mol|
|  sn= 5 | S(rot)=       0.01448177 Eh      9.09 kcal/mol|
|  sn= 6 | S(rot)=       0.01430963 Eh      8.98 kcal/mol|
|  sn= 7 | S(rot)=       0.01416408 Eh      8.89 kcal/mol|
|  sn= 8 | S(rot)=       0.01403801 Eh      8.81 kcal/mol|
|  sn= 9 | S(rot)=       0.01392680 Eh      8.74 kcal/mol|
|  sn=10 | S(rot)=       0.01382732 Eh      8.68 kcal/mol|
|  sn=11 | S(rot)=       0.01373733 Eh      8.62 kcal/mol|
|  sn=12 | S(rot)=       0.01365517 Eh      8.57 kcal/mol|
 linear molecules ---------------------------------------
|  Dinfh | S(rot)=       0.01020208 Eh      6.40 kcal/mol|
|  Cinfv | S(rot)=       0.01085653 Eh      6.81 kcal/mol|
 --------------------------------------------------------


-------------------
GIBBS FREE ENERGY
-------------------

The Gibbs free energy is G = H - T*S

Total enthalpy                    ...  -1159.01374167 Eh 
Total entropy correction          ...     -0.06453056 Eh    -40.49 kcal/mol
-----------------------------------------------------------------------
Final Gibbs free energy         ...  -1159.07827224 Eh

For completeness - the Gibbs free energy minus the electronic energy
G-E(el)                           ...      0.23978189 Eh    150.47 kcal/mol


Maximum memory used throughout the entire PROP-calculation: 105.2 MB

--------------------------------
SUGGESTED CITATIONS FOR THIS RUN
--------------------------------

Below you find a list of papers that are relevant to this ORCA run
We neither can nor want to force you to cite these papers, but we appreciate if you do
You receive ORCA, which is the product of decades of hard work by many enthusiastic individuals, for free
The only thing we kindly ask in return is that you cite our papers,
We deeply appreciate it, if you show your appreciation for ORCA by not just citing the generic ORCA reference.

Please note that relegating all ORCA citations to the supporting information does *not* help us.
SI sections are not indexed - citations you put there will not count into any citation statistics
But we need these citations in order to attract the funding resources that allow us to do what we are doing

Therefore, if you are a happy ORCA user, please consider citing a few of the papers listed below in the main body of your paper

In addition to the list printed below, the program has created the file m1_01_Vitamin_B1-QM3_00-B97-3C-TZ.bibtex that contains the list in bibtex format
You can import this file easily into all common literature databanks and citation aid programs


List of essential papers. We consider these as the minimum necessary citations

  1. Neese,F.
     Software update: the ORCA program system, version 5.0
     WIRES Comput. Molec. Sci., 2022 12(1)e1606
     doi.org/10.1002/wcms.1606

List of papers to cite with high priority. The work reported in these papers was absolutely
necessary for this run to complete.
Our perspective: the developers of density functionals and basis sets usually get cited in chemistry papers
Good! But without the algorithms to do something with them, the functionals or basis sets would not do anything.
Hence, in our opinion, the algorithm design and method developments papers are equally worthy of getting cited

  1. Neese,F.
     An improvement of the resolution of the identity approximation for the formation of the Coulomb matrix
     J. Comp. Chem., 2003 24(14)1740-1747
     doi.org/10.1002/jcc.10318
  2. Bykov,D.; Petrenko,T.; Izsak,R.; Kossmann,S.; Becker,U.; Valeev,E.; Neese,F.
     Efficient implementation of the analytic second derivatives of Hartree-Fock and hybrid DFT energies: a detailed analysis of different approximations
     Molec. Phys., 2015 113 1961-1977
     doi.org/10.1080/00268976.2015.1025114
  3. Neese,F.
     The SHARK Integral Generation and Digestion System
     J. Comp. Chem., 2022  1-16
     doi.org/10.1002/jcc.26942
  4. Grimme,S.; Antony,J.; Ehrlich,S.; Krieg,H.
     A consistent and accurate ab initio parametrization of density functional dispersion correction (DFT-D) for the 94 elements H-Pu
     J. Chem. Phys., 2010 132 154104
     doi.org/10.1063/1.3382344
  5. Grimme,S.; Ehrlich,S.; Goerigk,L.
     Effect of the damping function in dispersion corrected density functional theory
     J. Comput. Chem., 2011 32(7)1456-1465
     doi.org/10.1002/jcc.21759

List of suggested additional citations. These are papers that are important in the 'surrounding' of 
of this run, or papers that preceded the highly important papers. If you like your results we are grateful for a citation.

  1. Neese,F.
     The ORCA program system
     WIRES Comput. Molec. Sci., 2012 2(1)73-78
     doi.org/10.1002/wcms.81
  2. Neese,F.
     Software update: the ORCA program system, version 4.0
     WIRES Comput. Molec. Sci., 2018 8(1)1-6
     doi.org/10.1002/wcms.1327
  3. Neese,F.; Wennmohs,F.; Becker,U.; Riplinger,C.
     The ORCA quantum chemistry program package
     J. Chem. Phys., 2020 152 Art. No. L224108
     doi.org/10.1063/5.0004608

List of optional additional citations

  1. Neese,F.
     Approximate second-order SCF convergence for spin unrestricted wavefunctions
     Chem. Phys. Lett., 2000 325(1-3)93-98
     doi.org/10.1016/s0009-2614(00)00662-x

Timings for individual modules:

Sum of individual times          ...      582.111 sec (=   9.702 min)
Startup calculation              ...       91.062 sec (=   1.518 min)  15.6 %
SCF iterations                   ...      184.322 sec (=   3.072 min)  31.7 %
Property integrals               ...       80.821 sec (=   1.347 min)  13.9 %
SCF Response                     ...       83.223 sec (=   1.387 min)  14.3 %
Property calculations            ...       32.931 sec (=   0.549 min)   5.7 %
SCF Gradient evaluation          ...      109.513 sec (=   1.825 min)  18.8 %
Geometry relaxation              ...        0.240 sec (=   0.004 min)   0.0 %
                             ****ORCA TERMINATED NORMALLY****
TOTAL RUN TIME: 0 days 0 hours 9 minutes 47 seconds 704 msec
