
                                 *****************
                                 * O   R   C   A *
                                 *****************

                                            #,                                       
                                            ###                                      
                                            ####                                     
                                            #####                                    
                                            ######                                   
                                           ########,                                 
                                     ,,################,,,,,                         
                               ,,#################################,,                 
                          ,,##########################################,,             
                       ,#########################################, ''#####,          
                    ,#############################################,,   '####,        
                  ,##################################################,,,,####,       
                ,###########''''           ''''###############################       
              ,#####''   ,,,,##########,,,,          '''####'''          '####       
            ,##' ,,,,###########################,,,                        '##       
           ' ,,###''''                  '''############,,,                           
         ,,##''                                '''############,,,,        ,,,,,,###''
      ,#''                                            '''#######################'''  
     '                                                          ''''####''''         
             ,#######,   #######,   ,#######,      ##                                
            ,#'     '#,  ##    ##  ,#'     '#,    #''#        ,####,   ,####,        
            ##       ##  ##   ,#'  ##            #'  '#       #'       #'  '#        
            ##       ##  #######   ##           ,######,      #####,   #    #        
            '#,     ,#'  ##    ##  '#,     ,#' ,#      #,     #,   #   #,  ,#        
             '#######'   ##     ##  '#######'  #'      '#     '####' # '####'        



                #########################################################
                #                        -***-                          #
                #          Department of theory and spectroscopy        #
                #                                                       #
                #                      Frank Neese                      #
                #                                                       #
                #     Directorship, Architecture, Infrastructure        #
                #                    SHARK, DRIVERS                     #
                #        Core code/Algorithms in most modules           #
                #                                                       #
                #        Max Planck Institute fuer Kohlenforschung      #
                #                Kaiser Wilhelm Platz 1                 #
                #                 D-45470 Muelheim/Ruhr                 #
                #                      Germany                          #
                #                                                       #
                #                  All rights reserved                  #
                #                        -***-                          #
                #########################################################


                         Program Version 6.0.1  -  RELEASE   -


 With contributions from (in alphabetic order):
[Max-Planck-Institut fuer Kohlenforschung]                               
  Daniel Aravena         : Magnetic Suceptibility                        
  Michael Atanasov       : Ab Initio Ligand Field Theory (pilot matlab implementation)
  Alexander A. Auer      : GIAO ZORA, VPT2 properties, NMR spectrum      
  Ute Becker             : All parallelization in ORCA, NUMFREQ, NUMCALC 
  Giovanni Bistoni       : ED, misc. LED, open-shell LED, HFLD           
  Martin Brehm           : Molecular dynamics                            
  Dmytro Bykov           : pre 5.0 version of the SCF Hessian            
  Marcos Casanova-Páez   : Triplet and SCS-CIS(D). UHF-(DLPNO)-IP/EA/STEOM-CCSD. UHF-CVS-IP/STEOM-CCSD   
  Vijay G. Chilkuri      : MRCI spin determinant printing, contributions to CSF-ICE 
  Pauline Colinet        : FMM embedding                                 
  Dipayan Datta          : RHF DLPNO-CCSD density                        
  Achintya Kumar Dutta   : EOM-CC, STEOM-CC                              
  Nicolas Foglia         : Exact transition moments, OPA infrastructure, MCD improvements    
  Dmitry Ganyushin       : Spin-Orbit,Spin-Spin,Magnetic field MRCI      
  Miquel Garcia-Rates    : C-PCM and meta-GGA Hessian, CCSD/C-PCM, Gaussian charge scheme 
  Tiago L. C. Gouveia    : GS-ROHF, GS-ROCIS                             
  Yang Guo               : DLPNO-NEVPT2, F12-NEVPT2, CIM, IAO-localization        
  Andreas Hansen         : Spin unrestricted coupled pair/coupled cluster methods 
  Ingolf Harden          : AUTO-CI MPn and infrastructure                
  Benjamin Helmich-Paris : MC-RPA, TRAH-(SCF,CASSCF), AVAS, COSX integrals, SCF dyn. polar. 
  Lee Huntington         : MR-EOM, pCC                                   
  Robert Izsak           : Overlap fitted RIJCOSX, COSX-SCS-MP3, EOM     
  Riya Kayal             : Wick's Theorem for AUTO-CI, AUTO-CI UHF-CCSDT 
  Emily Kempfer          : AUTO-CI, RHF CISDT and CCSDT                  
  Christian Kollmar      : KDIIS, OOCD, Brueckner-CCSD(T), CCSD density, CASPT2, CASPT2-K, improved NEVPT2 
  Axel Koslowski         : Symmetry handling                             
  Simone Kossmann        : meta-GGA functionals, TD-DFT gradient, OOMP2, (MP2 Hessian; deprecated post 5.0) 
  Lucas Lang             : DCDCAS                                        
  Marvin Lechner         : AUTO-CI (C++ implementation), FIC-MRCC        
  Spencer Leger          : CASSCF response                               
  Dagmar Lenk            : GEPOL surface, SMD, ORCA-2-JSON               
  Dimitrios Liakos       : Extrapolation schemes; Compound Job, initial MDCI parallelization 
  Dimitrios Manganas     : Further ROCIS development; embedding schemes. LFT, Crystal Embedding 
  Dimitrios Pantazis     : SARC Basis sets                               
  Anastasios Papadopoulos: AUTO-CI, single reference methods and gradients 
  Taras Petrenko         : pre 6.0 DFT Hessian and TD-DFT gradient, (ASA, deprecated), ECA, 1-Electron XAS/XES, NRVS 
  Peter Pinski           : DLPNO-MP2, DLPNO-MP2 Gradient                 
  Christoph Reimann      : Effective Core Potentials                     
  Marius Retegan         : Local ZFS, SOC                                
  Christoph Riplinger    : Optimizer, TS searches, QM/MM, DLPNO-CCSD(T), (RO)-DLPNO pert. Triples 
  Michael Roemelt        : Original ROCIS implementation                 
  Masaaki Saitow         : Open-shell DLPNO-CCSD energy and density      
  Barbara Sandhoefer     : DKH picture change effects                    
  Kantharuban Sivalingam : CASSCF convergence/infrastructure, NEVPT2 and variants, FIC-MRCI 
  Bernardo de Souza      : ESD, SOC TD-DFT                               
  Georgi L. Stoychev     : AutoAux, RI-MP2 NMR, DLPNO-MP2 response, X2C  
  Van Anh Tran           : RI-MP2 g-tensors                              
  Willem Van den Heuvel  : Paramagnetic NMR                              
  Zikuan Wang            : NOTCH, Electric field optimization            
  Frank Wennmohs         : Technical directorship and infrastructure     
  Hang Xu                : AUTO-CI-Response properties                   
                                                                         
[FACCTs GmbH]                                                            
  Markus Bursch, Miquel Garcia-Rates, Christoph Riplinger, Bernardo de Souza, Georgi L. Stoychev 
                                                                 
  APM, Basis sets (HGBS, AHGBS, def-TZVP (Ac-Lr), def2-XVPD (La-Lu)), CI-OPT, improved COSX, DLPNO-Multilevel,           
  DOCKER, DRACO, updates on ESD, GOAT, IRC, LR-CPCM, MBIS, meta-GGA TD-DFT gradient, ML-optimized integration grids, 
  MM, NACMEs, nearIR, NEB, NEB-TS, NL-DFT gradient (VV10), 2- and 3-layer-ONIOM, interface openCOSMO-RS, QMMM,   
  Crystal-QMMM, SF, symmetry and pop. for TD-DFT, r2SCAN hybrids, SOLVATOR                                   
                                                                         
[Other institutions]                                                     
  V. Asgeirsson          : NEB                                           
  Christoph Bannwarth    : sTDA-DFT, sTD-DFT, PBEh-3c, B97-3c, D3        
  Sebastian Ehlert       : rSCAN, r2SCAN, r2SCAN-3c, D4, dhf basis sets  
  Marvin Friede          : D4 for Fr, Ra, Ac-Lr                          
  Lars Goerigk           : TD-DFT with DH, B97 family of functionals     
  Stefan Grimme          : VdW corrections, initial TS optimization, DFT functionals, gCP, sTDA/sTD-DF 
  Waldemar Hujo          : DFT-NL                                        
  H. Jonsson             : NEB                                           
  Holger Kruse           : gCP                                           
  Marcel Mueller         : wB97X-3c, vDZP basis set                      
  Hagen Neugebauer       : wr2SCAN                                       
  Tobias Risthaus        : range-separated hybrid DFT                    
  Lukas Wittmann         : regularized MP2, r2SCAN double-hybrids, wr2SCAN        
                                                                         
We gratefully acknowledge several colleagues who have allowed us to      
interface, adapt or use parts of their codes:                            
  Ed Valeev, F. Pavosevic, A. Kumar             : LibInt (2-el integral package), F12 methods 
  Garnet Chan, S. Sharma, J. Yang, R. Olivares  : DMRG                   
  Ulf Ekstrom                                   : XCFun DFT Library      
  Mihaly Kallay                                 : mrcc  (arbitrary order and MRCC methods)
  Frank Weinhold                                : gennbo (NPA and NBO analysis)           
  Simon Mueller                                 : openCOSMO-RS                            
  Christopher J. Cramer and Donald G. Truhlar   : smd solvation model                     
  S Lehtola, MJT Oliveira, MAL Marques          : LibXC Library                           
  Liviu Ungur et al                             : ANISO software                          


 Your calculation uses the libint2 library for the computation of 2-el integrals
 For citations please refer to: http://libint.valeyev.net

 Your ORCA version has been built with support for libXC version: 6.2.2
 For citations please refer to: https://libxc.gitlab.io

 This ORCA versions uses:
   CBLAS   interface :  Fast vector & matrix operations
   LAPACKE interface :  Fast linear algebra routines
   SCALAPACK package :  Parallel linear algebra routines
   Shared memory     :  Shared parallel matrices
   BLAS/LAPACK       :  OpenBLAS 0.3.27  USE64BITINT DYNAMIC_ARCH NO_AFFINITY Zen SINGLE_THREADED
        Core in use  :  Zen
   Copyright (c) 2011-2014, The OpenBLAS Project


NOTE: MaxCore=6000 MB was set to SCF,MP2,MDCI,CIPSI,MRCI and CIS
      => If you want to overwrite this, your respective input block should be placed after the MaxCore statement
Your calculation utilizes the atom-pairwise dispersion correction
with the Becke-Johnson damping scheme (D3BJ)


Your calculation employs the composite approach B97-3c by Grimme and coworkers.
For the correct reference, please check the publication list of the Grimme group:
http://www.thch.uni-bonn.de/tc/index.php?section=publikationen&subsection=grimme#2017
   

XCFun DFT library Copyright 2009-2010 Ulf Ekstrom and contributors.
See http://admol.org/xcfun for more information.
This is free software; see the source code for copying conditions.
There is ABSOLUTELY NO WARRANTY; not even for MERCHANTABILITY or FITNESS FOR A PARTICULAR PURPOSE.
For details see the documentation.
Scientific users of this library should cite U. Ekstrom, L. Visscher, R. Bast, A. J. Thorvaldsen and K. Ruud;
J.Chem.Theor.Comp. 2010, DOI: 10.1021/ct100117s
XCFun Version 0.99 

================================================================================

----- Orbital basis set information -----
Your calculation utilizes the basis: def2-mTZVP
----- AuxJ basis set information -----
Your calculation utilizes the basis: def2-mTZVP/J
================================================================================
                                        WARNINGS
                       Please study these warnings very carefully!
================================================================================


WARNING: Geometry Optimization
  ===> : Switching off AutoStart
         For restart on a previous wavefunction, please use MOREAD

================================================================================
                                       INPUT FILE
================================================================================
NAME = m1_00_Vitamin_B9-QM3_00000-B97-3C-TZ.inp
|  1> %pal nprocs 16 end
|  2> %MaxCore 6000
|  3> # put your comments here
|  4> ! B97-3C  OPT  FREQ DEFGRID3 NOTRAH
|  5> %scf MaxIter 800 end
|  6> %output
|  7> Print [P_Hirshfeld] 1
|  8> end
|  9> %geom
| 10> MaxIter 3000
| 11>  TolE 1e-6 #TolE 5e-6 Energy change (a.u.)
| 12>  TolRMSG 3e-5 #TolRMSG 1e-4 RMS gradient (a.u.)
| 13>  TolMaxG 1e-4 #TolMaxG 3e-3 Max. element of gradient (a.u.)
| 14>  TolRMSD 2e-3 #TolRMSD 2e-3 RMS displacement (a.u.)
| 15>  TolMaxD 4e-3 #TolMaxD 4e-3 Max. displacement (a.u.)
| 16> end
| 17> * xyz 0 1
| 18>  O      -3.39992174       0.55684448      -1.05775717
| 19>  O      -2.77989251      -0.91121011       0.89266366
| 20>  O      -2.71689489       2.62756952      -1.43408274
| 21>  O       0.27492800       2.97569690       0.99878300
| 22>  O      -0.09464338       3.69315132      -1.06664570
| 23>  O       1.86207875       1.42671638      -0.11218572
| 24>  N      -1.57243431       0.97007627       1.10513982
| 25>  N       2.95927234      -3.56706688       1.49430609
| 26>  N       2.75147059      -1.18337915      -0.48257736
| 27>  N       1.44702530      -2.70667902      -2.37100055
| 28>  N       0.31104892       1.12850693      -1.72546547
| 29>  N       0.00504016      -0.91619616      -2.84863319
| 30>  N      -1.38113714       0.90464549      -3.28689099
| 31>  C      -2.71190270       1.80704201       0.82655115
| 32>  C      -2.53909454       3.19703022       1.39848410
| 33>  C      -1.70831323       4.19416752       0.61631077
| 34>  C      -1.70224414      -0.37500774       1.13888351
| 35>  C      -0.48371238      -1.18437508       1.40812077
| 36>  C      -2.96288266       1.72594468      -0.67374128
| 37>  C       1.77039460      -2.80828104       1.60571495
| 38>  C       3.88432396      -3.04490518       0.46633596
| 39>  C       0.68709109      -0.69036684       1.97099575
| 40>  C      -0.53715541      -2.51646833       1.01379404
| 41>  C       1.79999183      -1.49989225       2.07590450
| 42>  C       0.57140690      -3.32323418       1.11412214
| 43>  C      -0.42814711       3.62227238       0.09258677
| 44>  C       3.07713747      -2.43943386      -0.64493074
| 45>  C       1.77585917      -0.66407002      -1.22557893
| 46>  C       2.41418289      -3.19724756      -1.63832794
| 47>  C       1.06636160      -1.42365439      -2.16427021
| 48>  C       1.36234559       0.70699718      -0.95987201
| 49>  C      -0.35010084       0.32203832      -2.62521913
| 50>  H      -3.57831895       1.34413638       1.31039843
| 51>  H      -3.53405723       3.63491347       1.53184785
| 52>  H      -2.11399112       3.06547475       2.39517539
| 53>  H      -1.45873917       5.03278456       1.27580907
| 54>  H      -2.25194791       4.57805343      -0.24143781
| 55>  H      -0.67658922       1.41182201       1.21628877
| 56>  H       4.52537095      -3.86862245       0.13676777
| 57>  H       4.50878919      -2.25985521       0.89505401
| 58>  H       0.75416493       0.33385851       2.31186225
| 59>  H      -1.45483976      -2.89752437       0.58528015
| 60>  H       2.72524262      -4.53066997       1.28797689
| 61>  H       2.72568279      -1.10286939       2.46663341
| 62>  H       0.53269456      -4.34114481       0.74855630
| 63>  H       2.69420627      -4.23711824      -1.80472047
| 64>  H      -3.33117135      -0.10225062      -0.31923154
| 65>  H       0.06941332       2.11703963      -1.64301399
| 66>  H       1.03690947       2.48946935       0.55659242
| 67>  H      -1.85623695       1.67902304      -2.83467606
| 68>  H      -1.96806459       0.24624814      -3.77668069
| 69> *
| 70> 
| 71> 
| 72> 
| 73> 
| 74>                          ****END OF INPUT****
================================================================================

                       *****************************
                       * Geometry Optimization Run *
                       *****************************

Geometry optimization settings:
Update method            Update   .... BFGS
Choice of coordinates    CoordSys .... (2022) Redundant Internals
Initial Hessian          InHess   .... Almloef's Model
Max. no of cycles        MaxIter  .... 3000

Convergence Tolerances:
Energy Change            TolE     ....  1.0000e-06 Eh
Max. Gradient            TolMAXG  ....  1.0000e-04 Eh/bohr
RMS Gradient             TolRMSG  ....  3.0000e-05 Eh/bohr
Max. Displacement        TolMAXD  ....  4.0000e-03 bohr
RMS Displacement         TolRMSD  ....  2.0000e-03 bohr
Strict Convergence                .... False

------------------------------------------------------------------------------
                        ORCA OPTIMIZATION COORDINATE SETUP
------------------------------------------------------------------------------

The optimization will be done in redundant internal coordinates (2022)
Making redundant internal coordinates   ...  (2022 redundants) done
Evaluating the initial hessian          ...  (Almloef) done
Evaluating the coordinates              ...  done
Calculating the B-matrix                .... done
Calculating the G-matrix                .... done
Diagonalizing the G-matrix              .... done
Small eigenvalue found = 2.747e-03
Small eigenvalue found = 4.828e-03
Small eigenvalue found = 9.573e-03
Small eigenvalue found = 1.460e-02
Small eigenvalue found = 2.712e-02
The first mode is                       ....  111
The number of degrees of freedom        ....  147

    -----------------------------------------------------------------
                    Redundant Internal Coordinates


    -----------------------------------------------------------------
         Definition                    Initial Value    Approx d2E/dq
    -----------------------------------------------------------------
      1. B(C  13,N   6)                  1.4410         0.463972   
      2. B(C  14,C  13)                  1.5130         0.397713   
      3. B(C  15,C  14)                  1.5153         0.394236   
      4. B(C  16,O   1)                  1.2286         1.012454   
      5. B(C  16,N   6)                  1.3518         0.644012   
      6. B(C  17,C  16)                  1.4874         0.436847   
      7. B(C  18,C  13)                  1.5233         0.382883   
      8. B(C  18,O   0)                  1.3059         0.762286   
      9. B(C  18,O   2)                  1.2048         1.104947   
     10. B(C  19,N   7)                  1.4148         0.510908   
     11. B(C  20,N   7)                  1.4782         0.404713   
     12. B(C  21,C  17)                  1.3898         0.625166   
     13. B(C  22,C  17)                  1.3903         0.624201   
     14. B(C  23,C  21)                  1.3802         0.647757   
     15. B(C  23,C  19)                  1.3906         0.623366   
     16. B(C  24,C  22)                  1.3747         0.660878   
     17. B(C  24,C  19)                  1.3944         0.614730   
     18. B(C  25,C  15)                  1.4967         0.422154   
     19. B(C  25,O   4)                  1.2083         1.090721   
     20. B(C  25,O   3)                  1.3166         0.732658   
     21. B(C  26,C  20)                  1.5010         0.415541   
     22. B(C  26,N   8)                  1.3077         0.757134   
     23. B(C  27,N   8)                  1.3317         0.693129   
     24. B(C  28,C  26)                  1.4144         0.571154   
     25. B(C  28,N   9)                  1.3088         0.754196   
     26. B(C  29,C  27)                  1.4005         0.601079   
     27. B(C  29,N   9)                  1.3542         0.638307   
     28. B(C  29,N  11)                  1.3610         0.622548   
     29. B(C  30,C  27)                  1.4565         0.489359   
     30. B(C  30,N  10)                  1.3671         0.608657   
     31. B(C  30,O   5)                  1.2191         1.048269   
     32. B(C  31,N  12)                  1.3566         0.632724   
     33. B(C  31,N  11)                  1.3074         0.758014   
     34. B(C  31,N  10)                  1.3773         0.586236   
     35. B(H  32,C  13)                  1.0950         0.353521   
     36. B(H  33,C  14)                  1.0952         0.353277   
     37. B(H  34,C  14)                  1.0915         0.358096   
     38. B(H  35,C  15)                  1.0957         0.352670   
     39. B(H  36,C  15)                  1.0857         0.365898   
     40. B(H  37,O   3)                  1.8435         0.020251   
     41. B(H  37,N   6)                  1.0050         0.440724   
     42. B(H  38,C  20)                  1.0946         0.354115   
     43. B(H  39,C  20)                  1.0909         0.358913   
     44. B(H  40,C  21)                  1.0815         0.371469   
     45. B(H  41,C  22)                  1.0821         0.370684   
     46. B(H  42,N   7)                  1.0129         0.428195   
     47. B(H  43,C  23)                  1.0804         0.373067   
     48. B(H  44,C  24)                  1.0823         0.370491   
     49. B(H  45,C  28)                  1.0897         0.360506   
     50. B(H  46,O   1)                  1.5579         0.057820   
     51. B(H  46,O   0)                  0.9922         0.461870   
     52. B(H  47,O   4)                  1.6862         0.036089   
     53. B(H  47,N  10)                  1.0210         0.415614   
     54. B(H  48,O   4)                  2.3161         0.003568   
     55. B(H  48,O   5)                  1.5025         0.070858   
     56. B(H  48,O   3)                  1.0063         0.438689   
     57. B(H  49,O   2)                  1.8979         0.016579   
     58. B(H  49,N  12)                  1.0148         0.425099   
     59. B(H  50,N  12)                  1.0089         0.434471   
     60. A(C  18,O   0,H  46)          110.6474         0.375781   
     61. A(C  25,O   3,H  48)          109.8280         0.369926   
     62. A(C  13,N   6,H  37)          118.0954         0.342594   
     63. A(C  13,N   6,C  16)          120.4538         0.409601   
     64. A(C  16,N   6,H  37)          121.3468         0.362130   
     65. A(C  19,N   7,H  42)          109.3978         0.346500   
     66. A(C  20,N   7,H  42)          109.8157         0.333271   
     67. A(C  19,N   7,C  20)          113.0280         0.383968   
     68. A(C  26,N   8,C  27)          119.1907         0.453189   
     69. A(C  28,N   9,C  29)          118.5162         0.446146   
     70. A(C  31,N  10,H  47)          120.4024         0.352854   
     71. A(C  30,N  10,H  47)          115.8041         0.355105   
     72. A(C  30,N  10,C  31)          123.6710         0.422738   
     73. A(C  29,N  11,C  31)          118.6229         0.444537   
     74. A(C  31,N  12,H  50)          113.4952         0.360161   
     75. A(H  49,N  12,H  50)          116.2282         0.302595   
     76. A(C  31,N  12,H  49)          117.7867         0.358826   
     77. A(C  14,C  13,H  32)          108.1628         0.326683   
     78. A(C  18,C  13,H  32)          106.3986         0.324648   
     79. A(N   6,C  13,C  14)          111.7286         0.378851   
     80. A(C  14,C  13,C  18)          116.1066         0.368821   
     81. A(N   6,C  13,C  18)          106.8442         0.376369   
     82. A(N   6,C  13,H  32)          107.1398         0.333094   
     83. A(C  15,C  14,H  34)          109.7011         0.326903   
     84. A(H  33,C  14,H  34)          106.9064         0.289714   
     85. A(C  13,C  14,H  33)          108.0345         0.326646   
     86. A(C  13,C  14,C  15)          118.1668         0.370678   
     87. A(C  13,C  14,H  34)          106.1967         0.327376   
     88. A(C  15,C  14,H  33)          107.3272         0.326174   
     89. A(H  35,C  15,H  36)          108.6009         0.290617   
     90. A(C  14,C  15,H  36)          111.4666         0.328066   
     91. A(C  14,C  15,C  25)          113.4598         0.374506   
     92. A(C  25,C  15,H  36)          106.6751         0.331797   
     93. A(C  25,C  15,H  35)          107.9536         0.329782   
     94. A(C  14,C  15,H  35)          108.5323         0.326082   
     95. A(N   6,C  16,C  17)          117.8597         0.407883   
     96. A(O   1,C  16,C  17)          121.1559         0.442267   
     97. A(O   1,C  16,N   6)          120.8978         0.471531   
     98. A(C  21,C  17,C  22)          119.1977         0.435243   
     99. A(C  16,C  17,C  22)          116.0112         0.408263   
    100. A(C  16,C  17,C  21)          124.7515         0.408375   
    101. A(O   0,C  18,O   2)          123.5545         0.494353   
    102. A(O   2,C  18,C  13)          123.2353         0.438732   
    103. A(O   0,C  18,C  13)          113.1060         0.410547   
    104. A(C  23,C  19,C  24)          119.0096         0.433822   
    105. A(N   7,C  19,C  24)          119.7837         0.415927   
    106. A(N   7,C  19,C  23)          120.8874         0.416961   
    107. A(N   7,C  20,H  38)          108.0629         0.325750   
    108. A(N   7,C  20,C  26)          108.7118         0.372827   
    109. A(H  38,C  20,H  39)          108.9438         0.289925   
    110. A(C  26,C  20,H  39)          107.9688         0.329878   
    111. A(N   7,C  20,H  39)          109.8240         0.326473   
    112. A(C  26,C  20,H  38)          113.3030         0.329145   
    113. A(C  17,C  21,H  40)          121.0972         0.355272   
    114. A(C  23,C  21,H  40)          118.7829         0.357420   
    115. A(C  17,C  21,C  23)          120.1040         0.438159   
    116. A(C  17,C  22,C  24)          120.7043         0.439624   
    117. A(C  24,C  22,H  41)          120.4046         0.358512   
    118. A(C  17,C  22,H  41)          118.8374         0.355051   
    119. A(C  21,C  23,H  43)          120.1884         0.357681   
    120. A(C  19,C  23,H  43)          119.0961         0.355357   
    121. A(C  19,C  23,C  21)          120.5966         0.437931   
    122. A(C  19,C  24,C  22)          120.1575         0.438413   
    123. A(C  22,C  24,H  44)          119.8989         0.358480   
    124. A(C  19,C  24,H  44)          119.8134         0.354101   
    125. A(O   4,C  25,C  15)          123.3225         0.445499   
    126. A(O   3,C  25,C  15)          113.7994         0.414795   
    127. A(O   3,C  25,O   4)          122.8005         0.489555   
    128. A(C  20,C  26,C  28)          123.7725         0.398388   
    129. A(N   8,C  26,C  28)          119.0177         0.440471   
    130. A(N   8,C  26,C  20)          115.4326         0.416057   
    131. A(C  29,C  27,C  30)          119.2737         0.413785   
    132. A(N   8,C  27,C  30)          118.2472         0.421670   
    133. A(N   8,C  27,C  29)          122.2467         0.437519   
    134. A(C  26,C  28,H  45)          119.8726         0.348119   
    135. A(N   9,C  28,H  45)          117.5236         0.362676   
    136. A(N   9,C  28,C  26)          122.5965         0.440162   
    137. A(N  11,C  29,C  27)          121.9955         0.429150   
    138. A(N   9,C  29,C  27)          118.2794         0.431080   
    139. A(N   9,C  29,N  11)          119.7170         0.430971   
    140. A(N  10,C  30,C  27)          113.9784         0.412027   
    141. A(O   5,C  30,C  27)          124.4848         0.454324   
    142. A(O   5,C  30,N  10)          121.5051         0.469657   
    143. A(N  11,C  31,N  12)          121.9961         0.445844   
    144. A(N  10,C  31,N  12)          115.5940         0.425681   
    145. A(N  10,C  31,N  11)          122.3977         0.439733   
    146. D(C  14,C  13,N   6,H  37)    -28.2628         0.018382   
    147. D(C  18,C  13,N   6,C  16)    -76.6089         0.018382   
    148. D(C  18,C  13,N   6,H  37)     99.7322         0.018382   
    149. D(H  32,C  13,N   6,C  16)     37.0977         0.018382   
    150. D(C  14,C  13,N   6,C  16)    155.3960         0.018382   
    151. D(C  15,C  14,C  13,N   6)     81.1288         0.012555   
    152. D(C  15,C  14,C  13,H  32)   -161.1853         0.012555   
    153. D(H  33,C  14,C  13,C  18)     80.2435         0.012555   
    154. D(C  15,C  14,C  13,C  18)    -41.7366         0.012555   
    155. D(H  33,C  14,C  13,N   6)   -156.8911         0.012555   
    156. D(H  33,C  14,C  13,H  32)    -39.2052         0.012555   
    157. D(H  35,C  15,C  14,C  13)   -164.8208         0.012345   
    158. D(C  25,C  15,C  14,H  34)     77.0287         0.012345   
    159. D(C  25,C  15,C  14,H  33)   -167.1676         0.012345   
    160. D(C  25,C  15,C  14,C  13)    -44.8288         0.012345   
    161. D(H  35,C  15,C  14,H  34)    -42.9632         0.012345   
    162. D(H  35,C  15,C  14,H  33)     72.8405         0.012345   
    163. D(C  17,C  16,N   6,H  37)      2.7238         0.033794   
    164. D(C  17,C  16,N   6,C  13)    178.9443         0.033794   
    165. D(O   1,C  16,N   6,H  37)   -173.9300         0.033794   
    166. D(O   1,C  16,N   6,C  13)      2.2905         0.033794   
    167. D(C  22,C  17,C  16,N   6)   -159.6823         0.013026   
    168. D(C  22,C  17,C  16,O   1)     16.9625         0.013026   
    169. D(C  21,C  17,C  16,N   6)     17.9997         0.013026   
    170. D(C  21,C  17,C  16,O   1)   -165.3555         0.013026   
    171. D(O   0,C  18,C  13,H  32)    -44.9818         0.010929   
    172. D(O   0,C  18,C  13,C  14)   -165.3840         0.010929   
    173. D(O   0,C  18,C  13,N   6)     69.2275         0.010929   
    174. D(C  13,C  18,O   0,H  46)    -10.0534         0.044290   
    175. D(O   2,C  18,C  13,N   6)   -107.1758         0.010929   
    176. D(O   2,C  18,O   0,H  46)    166.3367         0.044290   
    177. D(O   2,C  18,C  13,C  14)     18.2127         0.010929   
    178. D(C  24,C  19,N   7,H  42)    -16.0309         0.020667   
    179. D(C  24,C  19,N   7,C  20)    106.6650         0.020667   
    180. D(C  23,C  19,N   7,H  42)    170.5215         0.020667   
    181. D(C  23,C  19,N   7,C  20)    -66.7826         0.020667   
    182. D(H  39,C  20,N   7,C  19)     85.4594         0.013978   
    183. D(H  38,C  20,N   7,H  42)    -33.3563         0.013978   
    184. D(H  38,C  20,N   7,C  19)   -155.8193         0.013978   
    185. D(C  26,C  20,N   7,H  42)     89.9959         0.013978   
    186. D(C  26,C  20,N   7,C  19)    -32.4670         0.013978   
    187. D(H  40,C  21,C  17,C  22)   -178.4100         0.027072   
    188. D(H  40,C  21,C  17,C  16)      3.9764         0.027072   
    189. D(C  23,C  21,C  17,C  22)      3.0576         0.027072   
    190. D(C  23,C  21,C  17,C  16)   -174.5560         0.027072   
    191. D(H  41,C  22,C  17,C  21)    179.3989         0.026983   
    192. D(H  41,C  22,C  17,C  16)     -2.7828         0.026983   
    193. D(C  24,C  22,C  17,C  21)     -3.2558         0.026983   
    194. D(C  24,C  22,C  17,C  16)    174.5625         0.026983   
    195. D(H  43,C  23,C  21,H  40)     -1.6944         0.029201   
    196. D(H  43,C  23,C  21,C  17)    176.8718         0.029201   
    197. D(C  19,C  23,C  21,H  40)   -177.6943         0.029201   
    198. D(C  19,C  23,C  21,C  17)      0.8718         0.029201   
    199. D(H  43,C  23,C  19,C  24)    179.3670         0.026907   
    200. D(H  43,C  23,C  19,N   7)     -7.1355         0.026907   
    201. D(C  21,C  23,C  19,C  24)     -4.5898         0.026907   
    202. D(C  21,C  23,C  19,N   7)    168.9077         0.026907   
    203. D(C  19,C  24,C  22,C  17)     -0.4882         0.030483   
    204. D(H  44,C  24,C  19,C  23)   -179.7605         0.026122   
    205. D(H  44,C  24,C  19,N   7)      6.6688         0.026122   
    206. D(C  22,C  24,C  19,C  23)      4.3909         0.026122   
    207. D(C  19,C  24,C  22,H  41)    176.8154         0.030483   
    208. D(C  22,C  24,C  19,N   7)   -169.1798         0.026122   
    209. D(H  44,C  24,C  22,H  41)      0.9704         0.030483   
    210. D(H  44,C  24,C  22,C  17)   -176.3333         0.030483   
    211. D(O   4,C  25,C  15,H  35)   -112.2003         0.013174   
    212. D(O   4,C  25,C  15,C  14)    127.4794         0.013174   
    213. D(O   3,C  25,C  15,H  36)   -172.5165         0.013174   
    214. D(O   3,C  25,C  15,H  35)     70.9270         0.013174   
    215. D(O   3,C  25,C  15,C  14)    -49.3933         0.013174   
    216. D(C  15,C  25,O   3,H  48)    170.6128         0.044845   
    217. D(O   4,C  25,O   3,H  48)     -6.2784         0.044845   
    218. D(C  28,C  26,C  20,N   7)    -77.3443         0.012777   
    219. D(N   8,C  26,C  20,H  39)    -31.8205         0.012777   
    220. D(N   8,C  26,C  20,H  38)   -152.5705         0.012777   
    221. D(N   8,C  26,C  20,N   7)     87.2750         0.012777   
    222. D(C  28,C  26,N   8,C  27)      2.1737         0.043628   
    223. D(C  28,C  26,C  20,H  38)     42.8101         0.012777   
    224. D(C  20,C  26,N   8,C  27)   -163.2232         0.043628   
    225. D(C  30,C  27,N   8,C  26)    175.5158         0.035910   
    226. D(C  29,C  27,N   8,C  26)      1.0986         0.035910   
    227. D(H  45,C  28,C  26,C  20)    -17.6306         0.022381   
    228. D(H  45,C  28,C  26,N   8)    178.2666         0.022381   
    229. D(N   9,C  28,C  26,C  20)    161.3595         0.022381   
    230. D(N   9,C  28,C  26,N   8)     -2.7433         0.022381   
    231. D(H  45,C  28,N   9,C  29)    178.8234         0.043253   
    232. D(C  26,C  28,N   9,C  29)     -0.1891         0.043253   
    233. D(N  11,C  29,C  27,N   8)    174.9644         0.024912   
    234. D(N   9,C  29,C  27,C  30)   -178.3589         0.024912   
    235. D(N   9,C  29,C  27,N   8)     -3.9971         0.024912   
    236. D(C  27,C  29,N  11,C  31)      0.5570         0.028452   
    237. D(N   9,C  29,N  11,C  31)    179.5039         0.028452   
    238. D(C  27,C  29,N   9,C  28)      3.3761         0.030024   
    239. D(N  11,C  29,C  27,C  30)      0.6025         0.024912   
    240. D(N  11,C  29,N   9,C  28)   -175.6097         0.030024   
    241. D(N  10,C  30,C  27,N   8)   -176.8422         0.016306   
    242. D(O   5,C  30,C  27,C  29)    175.7180         0.016306   
    243. D(O   5,C  30,C  27,N   8)      1.1305         0.016306   
    244. D(C  27,C  30,N  10,H  47)   -172.9964         0.029914   
    245. D(C  27,C  30,N  10,C  31)      2.9838         0.029914   
    246. D(O   5,C  30,N  10,H  47)      8.9636         0.029914   
    247. D(N  10,C  30,C  27,C  29)     -2.2547         0.016306   
    248. D(O   5,C  30,N  10,C  31)   -175.0563         0.029914   
    249. D(N  11,C  31,N  12,H  50)     14.1276         0.032523   
    250. D(N  11,C  31,N  12,H  49)    154.8222         0.032523   
    251. D(N  10,C  31,N  12,H  50)   -167.1145         0.032523   
    252. D(N  10,C  31,N  12,H  49)    -26.4198         0.032523   
    253. D(N  12,C  31,N  11,C  29)    178.7420         0.043741   
    254. D(N  10,C  31,N  11,C  29)      0.0687         0.043741   
    255. D(N  12,C  31,N  10,H  47)     -4.9744         0.027603   
    256. D(N  12,C  31,N  10,C  30)    179.2219         0.027603   
    257. D(N  11,C  31,N  10,H  47)    173.7781         0.027603   
    258. D(N  11,C  31,N  10,C  30)     -2.0256         0.027603   
    -----------------------------------------------------------------

Number of atoms                         .... 51
Number of degrees of freedom            .... 258


         *************************************************************
         *                GEOMETRY OPTIMIZATION CYCLE   1            *
         *************************************************************
---------------------------------
CARTESIAN COORDINATES (ANGSTROEM)
---------------------------------
  O     -3.399922    0.556844   -1.057757
  O     -2.779893   -0.911210    0.892664
  O     -2.716895    2.627570   -1.434083
  O      0.274928    2.975697    0.998783
  O     -0.094643    3.693151   -1.066646
  O      1.862079    1.426716   -0.112186
  N     -1.572434    0.970076    1.105140
  N      2.959272   -3.567067    1.494306
  N      2.751471   -1.183379   -0.482577
  N      1.447025   -2.706679   -2.371001
  N      0.311049    1.128507   -1.725465
  N      0.005040   -0.916196   -2.848633
  N     -1.381137    0.904645   -3.286891
  C     -2.711903    1.807042    0.826551
  C     -2.539095    3.197030    1.398484
  C     -1.708313    4.194168    0.616311
  C     -1.702244   -0.375008    1.138884
  C     -0.483712   -1.184375    1.408121
  C     -2.962883    1.725945   -0.673741
  C      1.770395   -2.808281    1.605715
  C      3.884324   -3.044905    0.466336
  C      0.687091   -0.690367    1.970996
  C     -0.537155   -2.516468    1.013794
  C      1.799992   -1.499892    2.075905
  C      0.571407   -3.323234    1.114122
  C     -0.428147    3.622272    0.092587
  C      3.077137   -2.439434   -0.644931
  C      1.775859   -0.664070   -1.225579
  C      2.414183   -3.197248   -1.638328
  C      1.066362   -1.423654   -2.164270
  C      1.362346    0.706997   -0.959872
  C     -0.350101    0.322038   -2.625219
  H     -3.578319    1.344136    1.310398
  H     -3.534057    3.634913    1.531848
  H     -2.113991    3.065475    2.395175
  H     -1.458739    5.032785    1.275809
  H     -2.251948    4.578053   -0.241438
  H     -0.676589    1.411822    1.216289
  H      4.525371   -3.868622    0.136768
  H      4.508789   -2.259855    0.895054
  H      0.754165    0.333859    2.311862
  H     -1.454840   -2.897524    0.585280
  H      2.725243   -4.530670    1.287977
  H      2.725683   -1.102869    2.466633
  H      0.532695   -4.341145    0.748556
  H      2.694206   -4.237118   -1.804720
  H     -3.331171   -0.102251   -0.319232
  H      0.069413    2.117040   -1.643014
  H      1.036909    2.489469    0.556592
  H     -1.856237    1.679023   -2.834676
  H     -1.968065    0.246248   -3.776681

----------------------------
CARTESIAN COORDINATES (A.U.)
----------------------------
  NO LB      ZA    FRAG     MASS         X           Y           Z
   0 O     8.0000    0    15.999   -6.424921    1.052284   -1.998871
   1 O     8.0000    0    15.999   -5.253236   -1.721938    1.686890
   2 O     8.0000    0    15.999   -5.134187    4.965387   -2.710024
   3 O     8.0000    0    15.999    0.519539    5.623252    1.887426
   4 O     8.0000    0    15.999   -0.178850    6.979045   -2.015668
   5 O     8.0000    0    15.999    3.518819    2.696103   -0.212000
   6 N     7.0000    0    14.007   -2.971470    1.833178    2.088412
   7 N     7.0000    0    14.007    5.592214   -6.740780    2.823829
   8 N     7.0000    0    14.007    5.199526   -2.236263   -0.911939
   9 N     7.0000    0    14.007    2.734482   -5.114882   -4.480542
  10 N     7.0000    0    14.007    0.587797    2.132569   -3.260657
  11 N     7.0000    0    14.007    0.009525   -1.731360   -5.383137
  12 N     7.0000    0    14.007   -2.609971    1.709532   -6.211324
  13 C     6.0000    0    12.011   -5.124753    3.414815    1.561955
  14 C     6.0000    0    12.011   -4.798193    6.041512    2.642752
  15 C     6.0000    0    12.011   -3.228244    7.925828    1.164659
  16 C     6.0000    0    12.011   -3.216775   -0.708662    2.152178
  17 C     6.0000    0    12.011   -0.914084   -2.238145    2.660963
  18 C     6.0000    0    12.011   -5.599037    3.261563   -1.273187
  19 C     6.0000    0    12.011    3.345561   -5.306882    3.034362
  20 C     6.0000    0    12.011    7.340308   -5.754037    0.881247
  21 C     6.0000    0    12.011    1.298414   -1.304604    3.724642
  22 C     6.0000    0    12.011   -1.015077   -4.755436    1.915793
  23 C     6.0000    0    12.011    3.401492   -2.834386    3.922891
  24 C     6.0000    0    12.011    1.079803   -6.280002    2.105386
  25 C     6.0000    0    12.011   -0.809081    6.845103    0.174964
  26 C     6.0000    0    12.011    5.814947   -4.609862   -1.218742
  27 C     6.0000    0    12.011    3.355887   -1.254910   -2.316009
  28 C     6.0000    0    12.011    4.562144   -6.041922   -3.095991
  29 C     6.0000    0    12.011    2.015131   -2.690317   -4.089878
  30 C     6.0000    0    12.011    2.574460    1.336031   -1.813895
  31 C     6.0000    0    12.011   -0.661595    0.608564   -4.960945
  32 H     1.0000    0     1.008   -6.762043    2.540050    2.476294
  33 H     1.0000    0     1.008   -6.678400    6.868991    2.894773
  34 H     1.0000    0     1.008   -3.994864    5.792908    4.526226
  35 H     1.0000    0     1.008   -2.756618    9.510585    2.410930
  36 H     1.0000    0     1.008   -4.255565    8.651267   -0.456251
  37 H     1.0000    0     1.008   -1.278568    2.667957    2.298453
  38 H     1.0000    0     1.008    8.551712   -7.310637    0.258454
  39 H     1.0000    0     1.008    8.520377   -4.270507    1.691407
  40 H     1.0000    0     1.008    1.425165    0.630901    4.368787
  41 H     1.0000    0     1.008   -2.749249   -5.475528    1.106019
  42 H     1.0000    0     1.008    5.149962   -8.561725    2.433924
  43 H     1.0000    0     1.008    5.150794   -2.084121    4.661262
  44 H     1.0000    0     1.008    1.006647   -8.203575    1.414566
  45 H     1.0000    0     1.008    5.091312   -8.006993   -3.410427
  46 H     1.0000    0     1.008   -6.295002   -0.193226   -0.603260
  47 H     1.0000    0     1.008    0.131172    4.000625   -3.104846
  48 H     1.0000    0     1.008    1.959475    4.704415    1.051807
  49 H     1.0000    0     1.008   -3.507779    3.172894   -5.356761
  50 H     1.0000    0     1.008   -3.719103    0.465342   -7.136892

--------------------------------
INTERNAL COORDINATES (ANGSTROEM)
--------------------------------
 O      0   0   0     0.000000000000     0.00000000     0.00000000
 O      1   0   0     2.518682580115     0.00000000     0.00000000
 O      1   2   0     2.212701697866   126.95447936     0.00000000
 O      3   1   2     3.871825485052   102.46261109    14.87547967
 O      4   3   1     2.217503002135    46.76828718   141.60323046
 O      4   3   1     2.480451501518    99.02426201    69.06540662
 N      2   1   3     2.245515501369    73.57989541   355.34477097
 N      6   4   3     5.359339600864   125.35348677   257.67000856
 N      6   4   3     2.782230487894   148.21277201   275.99265322
 N      9   6   4     2.754661894512   117.30095337    85.03675940
 N      6   4   3     2.257718751612    87.87662152     2.62468850
 N     10   9   6     2.348038107597    90.49182610   359.46859302
 N     11   6   4     2.313364921599   176.03161683   351.22928990
 C      7   2   1     1.441010585941    92.47118567    45.58186169
 C     14   7   2     1.512956438037   111.72863378   156.47213810
 C     15  14   7     1.515346659435   118.16679987    81.12881882
 C      2   1   3     1.228602134741    96.70370388   334.32363841
 C     17   2   1     1.487408431924   121.15587412   225.22512458
 C      3   1   2     1.204805573895    29.46027827   333.32487534
 C      8   6   4     1.414778486456    49.59565238    30.91377703
 C      8   6   4     1.478206997948    65.82751473   191.84532299
 C     18  17   2     1.389839253174   124.75145966   194.64447764
 C     18  17   2     1.390259743409   116.01117803    16.96246409
 C     22  18  17     1.380175819363   120.10404434   185.44401994
 C     23  18  17     1.374717156192   120.70431048   174.56253305
 C      5   4   3     1.208332934899    29.93957652    54.86438671
 C      9   6   4     1.307704466322   175.72290733    33.19201414
 C      9   6   4     1.331747329022    58.28266999    88.01725073
 C     10   9   6     1.308762946364    58.23484194   182.47113491
 C     10   9   6     1.354176682402    60.29890861     0.92526240
 C      6   4   3     1.219139452362   114.69573059   346.43328959
 C     12  10   9     1.307388082991   148.67919138     1.67639477
 H     14   7   2     1.095019146368   107.13978463    38.17383589
 H     15  14   7     1.095207005518   108.03449553   203.10893634
 H     15  14   7     1.091518798255   106.19674026   317.50533426
 H     16  15  14     1.095675024314   108.53225008   195.17921699
 H     16  15  14     1.085651732227   111.46661942    75.62029267
 H      7   2   1     1.005003389632   149.09622696   233.73297633
 H     21   8   6     1.094562276047   108.06285912   188.49757329
 H     21   8   6     1.090898457819   109.82403343    69.77624671
 H     22  18  17     1.081538921360   121.09716545     3.97643411
 H     23  18  17     1.082114793254   118.83739703   357.21724146
 H      8   6   4     1.012853673377   141.08827893    99.80832672
 H     24  22  18     1.080370300359   120.18841522   176.87175379
 H     25  23  18     1.082256475753   119.89891744   183.66671397
 H     29  10   9     1.089692891832   117.52358612   180.35157981
 H      1   2   3     0.992246478016    11.30659196   208.78770876
 H     11   6   4     1.020971551372    88.68191825    37.45323757
 H      4   3   1     1.006263136582   105.40042023    77.67017150
 H     13  11  48     1.014829425234    88.15717602   332.51590458
 H     13  11  48     1.008892884441   144.72279045   196.44916517

---------------------------
INTERNAL COORDINATES (A.U.)
---------------------------
 O      0   0   0     0.000000000000     0.00000000     0.00000000
 O      1   0   0     4.759620294695     0.00000000     0.00000000
 O      1   2   0     4.181400225030   126.95447936     0.00000000
 O      3   1   2     7.316689805085   102.46261109    14.87547967
 O      4   3   1     4.190473375183    46.76828718   141.60323046
 O      4   3   1     4.687374026343    99.02426201    69.06540662
 N      2   1   3     4.243409327063    73.57989541   355.34477097
 N      6   4   3    10.127684104312   125.35348677   257.67000856
 N      6   4   3     5.257653663566   148.21277201   275.99265322
 N      9   6   4     5.205556572176   117.30095337    85.03675940
 N      6   4   3     4.266470127965    87.87662152     2.62468850
 N     10   9   6     4.437148975369    90.49182610   359.46859302
 N     11   6   4     4.371626149642   176.03161683   351.22928990
 C      7   2   1     2.723115363511    92.47118567    45.58186169
 C     14   7   2     2.859073320443   111.72863378   156.47213810
 C     15  14   7     2.863590184284   118.16679987    81.12881882
 C      2   1   3     2.321721562212    96.70370388   334.32363841
 C     17   2   1     2.810794585622   121.15587412   225.22512458
 C      3   1   2     2.276752579284    29.46027827   333.32487534
 C      8   6   4     2.673543879565    49.59565238    30.91377703
 C      8   6   4     2.793406395368    65.82751473   191.84532299
 C     18  17   2     2.626415558672   124.75145966   194.64447764
 C     18  17   2     2.627210170059   116.01117803    16.96246409
 C     22  18  17     2.608154315257   120.10404434   185.44401994
 C     23  18  17     2.597838936806   120.70431048   174.56253305
 C      5   4   3     2.283418325556    29.93957652    54.86438671
 C      9   6   4     2.471203305455   175.72290733    33.19201414
 C      9   6   4     2.516637731433    58.28266999    88.01725073
 C     10   9   6     2.473203542853    58.23484194   182.47113491
 C     10   9   6     2.559023066682    60.29890861     0.92526240
 C      6   4   3     2.303839684023   114.69573059   346.43328959
 C     12  10   9     2.470605427606   148.67919138     1.67639477
 H     14   7   2     2.069286298036   107.13978463    38.17383589
 H     15  14   7     2.069641300382   108.03449553   203.10893634
 H     15  14   7     2.062671598729   106.19674026   317.50533426
 H     16  15  14     2.070525727732   108.53225008   195.17921699
 H     16  15  14     2.051584450726   111.46661942    75.62029267
 H      7   2   1     1.899181170067   149.09622696   233.73297633
 H     21   8   6     2.068422938249   108.06285912   188.49757329
 H     21   8   6     2.061499325195   109.82403343    69.77624671
 H     22  18  17     2.043812364548   121.09716545     3.97643411
 H     23  18  17     2.044900604714   118.83739703   357.21724146
 H      8   6   4     1.914016056419   141.08827893    99.80832672
 H     24  22  18     2.041603990901   120.18841522   176.87175379
 H     25  23  18     2.045168345837   119.89891744   183.66671397
 H     29  10   9     2.059221135644   117.52358612   180.35157981
 H      1   2   3     1.875074100799    11.30659196   208.78770876
 H     11   6   4     1.929356622618    88.68191825    37.45323757
 H      4   3   1     1.901561746800   105.40042023    77.67017150
 H     13  11  48     1.917749686337    88.15717602   332.51590458
 H     13  11  48     1.906531250056   144.72279045   196.44916517

---------------------
BASIS SET INFORMATION
---------------------
There are 4 groups of distinct atoms

 Group   1 Type O   : 11s6p2d contracted to 5s3p2d pattern {62111/411/11}
 Group   2 Type N   : 11s6p1d contracted to 5s3p1d pattern {62111/411/1}
 Group   3 Type C   : 11s6p1d contracted to 5s3p1d pattern {62111/411/1}
 Group   4 Type H   : 5s contracted to 3s pattern {311}

Atom   0O    basis set group =>   1
Atom   1O    basis set group =>   1
Atom   2O    basis set group =>   1
Atom   3O    basis set group =>   1
Atom   4O    basis set group =>   1
Atom   5O    basis set group =>   1
Atom   6N    basis set group =>   2
Atom   7N    basis set group =>   2
Atom   8N    basis set group =>   2
Atom   9N    basis set group =>   2
Atom  10N    basis set group =>   2
Atom  11N    basis set group =>   2
Atom  12N    basis set group =>   2
Atom  13C    basis set group =>   3
Atom  14C    basis set group =>   3
Atom  15C    basis set group =>   3
Atom  16C    basis set group =>   3
Atom  17C    basis set group =>   3
Atom  18C    basis set group =>   3
Atom  19C    basis set group =>   3
Atom  20C    basis set group =>   3
Atom  21C    basis set group =>   3
Atom  22C    basis set group =>   3
Atom  23C    basis set group =>   3
Atom  24C    basis set group =>   3
Atom  25C    basis set group =>   3
Atom  26C    basis set group =>   3
Atom  27C    basis set group =>   3
Atom  28C    basis set group =>   3
Atom  29C    basis set group =>   3
Atom  30C    basis set group =>   3
Atom  31C    basis set group =>   3
Atom  32H    basis set group =>   4
Atom  33H    basis set group =>   4
Atom  34H    basis set group =>   4
Atom  35H    basis set group =>   4
Atom  36H    basis set group =>   4
Atom  37H    basis set group =>   4
Atom  38H    basis set group =>   4
Atom  39H    basis set group =>   4
Atom  40H    basis set group =>   4
Atom  41H    basis set group =>   4
Atom  42H    basis set group =>   4
Atom  43H    basis set group =>   4
Atom  44H    basis set group =>   4
Atom  45H    basis set group =>   4
Atom  46H    basis set group =>   4
Atom  47H    basis set group =>   4
Atom  48H    basis set group =>   4
Atom  49H    basis set group =>   4
Atom  50H    basis set group =>   4
---------------------------------
AUXILIARY/J BASIS SET INFORMATION
---------------------------------
There are 4 groups of distinct atoms

 Group   1 Type O   : 8s3p3d contracted to 6s3p3d pattern {311111/111/111}
 Group   2 Type N   : 8s3p3d contracted to 6s3p3d pattern {311111/111/111}
 Group   3 Type C   : 8s3p3d contracted to 6s3p3d pattern {311111/111/111}
 Group   4 Type H   : 5s2p contracted to 3s1p pattern {311/2}

Atom   0O    basis set group =>   1
Atom   1O    basis set group =>   1
Atom   2O    basis set group =>   1
Atom   3O    basis set group =>   1
Atom   4O    basis set group =>   1
Atom   5O    basis set group =>   1
Atom   6N    basis set group =>   2
Atom   7N    basis set group =>   2
Atom   8N    basis set group =>   2
Atom   9N    basis set group =>   2
Atom  10N    basis set group =>   2
Atom  11N    basis set group =>   2
Atom  12N    basis set group =>   2
Atom  13C    basis set group =>   3
Atom  14C    basis set group =>   3
Atom  15C    basis set group =>   3
Atom  16C    basis set group =>   3
Atom  17C    basis set group =>   3
Atom  18C    basis set group =>   3
Atom  19C    basis set group =>   3
Atom  20C    basis set group =>   3
Atom  21C    basis set group =>   3
Atom  22C    basis set group =>   3
Atom  23C    basis set group =>   3
Atom  24C    basis set group =>   3
Atom  25C    basis set group =>   3
Atom  26C    basis set group =>   3
Atom  27C    basis set group =>   3
Atom  28C    basis set group =>   3
Atom  29C    basis set group =>   3
Atom  30C    basis set group =>   3
Atom  31C    basis set group =>   3
Atom  32H    basis set group =>   4
Atom  33H    basis set group =>   4
Atom  34H    basis set group =>   4
Atom  35H    basis set group =>   4
Atom  36H    basis set group =>   4
Atom  37H    basis set group =>   4
Atom  38H    basis set group =>   4
Atom  39H    basis set group =>   4
Atom  40H    basis set group =>   4
Atom  41H    basis set group =>   4
Atom  42H    basis set group =>   4
Atom  43H    basis set group =>   4
Atom  44H    basis set group =>   4
Atom  45H    basis set group =>   4
Atom  46H    basis set group =>   4
Atom  47H    basis set group =>   4
Atom  48H    basis set group =>   4
Atom  49H    basis set group =>   4
Atom  50H    basis set group =>   4


           ************************************************************
           *        Program running with 16 parallel MPI-processes    *
           *              working on a common directory               *
           ************************************************************
------------------------------------------------------------------------------
                             ORCA STARTUP CALCULATIONS
                           -- RI-GTO INTEGRALS CHOSEN --
------------------------------------------------------------------------------
------------------------------------------------------------------------------
                   ___                                                        
                  /   \      - P O W E R E D   B Y -                         
                 /     \                                                     
                 |  |  |   _    _      __       _____    __    __             
                 |  |  |  | |  | |    /  \     |  _  \  |  |  /  |          
                  \  \/   | |  | |   /    \    | | | |  |  | /  /          
                 / \  \   | |__| |  /  /\  \   | |_| |  |  |/  /          
                |  |  |   |  __  | /  /__\  \  |    /   |      \           
                |  |  |   | |  | | |   __   |  |    \   |  |\   \          
                \     /   | |  | | |  |  |  |  | |\  \  |  | \   \       
                 \___/    |_|  |_| |__|  |__|  |_| \__\ |__|  \__/        
                                                                              
                      - O R C A' S   B I G   F R I E N D -                    
                                      &                                       
                       - I N T E G R A L  F E E D E R -                       
                                                                              
 v1 FN, 2020, v2 2021, v3 2022-2024                                           
------------------------------------------------------------------------------


----------------------
SHARK INTEGRAL PACKAGE
----------------------

Number of atoms                             ...     51
Number of basis functions                   ...    695
Number of shells                            ...    351
Maximum angular momentum                    ...      2
Integral batch strategy                     ... SHARK/LIBINT Hybrid
RI-J (if used) integral strategy            ... SPLIT-RIJ (Revised 2003 algorithm where possible)
Printlevel                                  ...      1
Contraction scheme used                     ... SEGMENTED contraction
Prescreening option                         ... SCHWARTZ
   Thresh                                   ... 2.500e-11
   Tcut                                     ... 2.500e-12
   Tpresel                                  ... 2.500e-12 
Coulomb Range Separation                    ... NOT USED
Exchange Range Separation                   ... NOT USED
Multipole approximations                    ... NOT USED
Finite Nucleus Model                        ... NOT USED
CABS basis                                  ... NOT available
Auxiliary Coulomb fitting basis             ... AVAILABLE
   # of basis functions in Aux-J            ...   1074
   # of shells in Aux-J                     ...    460
   Maximum angular momentum in Aux-J        ...      2
Auxiliary J/K fitting basis                 ... NOT available
Auxiliary Correlation fitting basis         ... NOT available
Auxiliary 'external' fitting basis          ... NOT available

Checking pre-screening integrals            ... done (  0.0 sec) Dimension = 351
Check shell pair data                       ... done (  0.0 sec)
Shell pair information
Shell pair cut-off parameter TPreSel        ...   2.5e-12
Total number of shell pairs                 ...     61776
Shell pairs after pre-screening             ...     45044
Total number of primitive shell pairs       ...    230264
Primitive shell pairs kept                  ...    101971
          la=0 lb=0:  15759 shell pairs
          la=1 lb=0:  16193 shell pairs
          la=1 lb=1:   4061 shell pairs
          la=2 lb=0:   5551 shell pairs
          la=2 lb=1:   2944 shell pairs
          la=2 lb=2:    536 shell pairs

Calculating one electron integrals          ... done (  0.0 sec)
Calculating RI/J V-Matrix + Cholesky decomp.... done (  0.0 sec)
Calculating Nuclear repulsion               ... done (  0.0 sec) ENN=   3647.276110344291 Eh

Diagonalization of the overlap matrix:
Smallest eigenvalue                        ... 6.489e-06
Time for diagonalization                   ...    0.053 sec
Threshold for overlap eigenvalues          ... 1.000e-07
Number of eigenvalues below threshold      ... 0
Time for construction of square roots      ...    0.032 sec
Total time needed                          ...    0.090 sec

-------------------
DFT GRID GENERATION
-------------------

General Integration Accuracy     IntAcc      ... 4.959
Radial Grid Type                 RadialGrid  ... OptM3 with GC (2021)
Angular Grid (max. ang.)         AngularGrid ... 6 (Lebedev-590)
Angular grid pruning method      GridPruning ... 4 (adaptive)
Weight generation scheme         WeightScheme... mBecke (2022)
Basis function cutoff            BFCut       ... 1.0000e-11
Integration weight cutoff        WCut        ... 1.0000e-14
Partially contracted basis set               ... off
Rotationally invariant grid construction     ... off
Angular grids for H and He will be reduced by one unit
Diffuse basis detected: some atoms will have their outermost
                        angular grid increased by 1.

Total number of grid points                  ...   611773
Total number of batches                      ...     9587
Average number of points per batch           ...       63
Average number of grid points per atom       ...    11996
Initializing property integral containers    ... done (  0.0 sec)

SHARK setup successfully completed in   5.4 seconds

Maximum memory used throughout the entire STARTUP-calculation: 158.6 MB


           ************************************************************
           *        Program running with 16 parallel MPI-processes    *
           *              working on a common directory               *
           ************************************************************
-------------------------------------------------------------------------------
                                 ORCA GUESS
                   Start orbitals & Density for SCF / CASSCF
-------------------------------------------------------------------------------

------------
SCF SETTINGS
------------
Hamiltonian:
 Density Functional     Method          .... DFT(GTOs)
 Exchange Functional    Exchange        .... B973C
 Correlation Functional Correlation     .... B973C
 Gradients option       PostSCFGGA      .... off
 RI-approximation to the Coulomb term is turned on
   Number of AuxJ basis functions       .... 1074


General Settings:
 Integral files         IntName         .... m1_00_Vitamin_B9-QM3_00000-B97-3C-TZ
 Hartree-Fock type      HFTyp           .... RHF
 Total Charge           Charge          ....    0
 Multiplicity           Mult            ....    1
 Number of Electrons    NEL             ....  230
 Basis Dimension        Dim             ....  695
 Nuclear Repulsion      ENuc            ....   3647.2761103443 Eh

Convergence Acceleration:
 AO-DIIS                CNVDIIS         .... on
   Start iteration      DIISMaxIt       ....    12
   Startup error        DIISStart       ....  0.200000
   # of expansion vecs  DIISMaxEq       ....     5
   Bias factor          DIISBfac        ....   1.050
   Max. coefficient     DIISMaxC        ....  10.000
 MO-DIIS                CNVKDIIS        .... off
 Trust-Rad. Augm. Hess. CNVTRAH         .... off
 SOSCF                  CNVSOSCF        .... on
   Start iteration      SOSCFMaxIt      ....   150
   Startup grad/error   SOSCFStart      ....  0.003300
   Hessian update       SOSCFHessUp     .... L-BFGS
 Level Shifting         CNVShift        .... on
   Level shift para.    LevelShift      ....    0.2500
   Turn off err/grad.   ShiftErr        ....    0.0010
 Zerner damping         CNVZerner       .... off
 Static damping         CNVDamp         .... on
   Fraction old density DampFac         ....    0.7000
   Max. Damping (<1)    DampMax         ....    0.9800
   Min. Damping (>=0)   DampMin         ....    0.0000
   Turn off err/grad.   DampErr         ....    0.1000

SCF Procedure:
 Maximum # iterations   MaxIter         ....   800
 SCF integral mode      SCFMode         .... Direct
   Integral package                     .... SHARK and LIBINT hybrid scheme
 Reset frequency        DirectResetFreq ....    20
 Integral Threshold     Thresh          ....  2.500e-11 Eh
 Primitive CutOff       TCut            ....  2.500e-12 Eh

Convergence Tolerance:
 Convergence Check Mode ConvCheckMode   .... Total+1el-Energy
 Convergence forced     ConvForced      .... 0
 Energy Change          TolE            ....  1.000e-08 Eh
 1-El. energy change                    ....  1.000e-05 Eh
 Orbital Gradient       TolG            ....  1.000e-05
 Orbital Rotation angle TolX            ....  1.000e-05
 DIIS Error             TolErr          ....  5.000e-07

--------------------------------
INITIAL GUESS: MINIMAL BASIS EHT
--------------------------------
The minimal basis has 179 functions
EHT matrix was diagonalized
Basis set overlap was calculated now projecting the orbitals
Using GuessMode=FMatrix for the initial guess
C*T matrix was formed
Effective Fockian was calculated
Effective Fockian was diagonalized
Initial density was built
                      ------------------
                      INITIAL GUESS DONE
                      ------------------
             **** ENERGY FILE WAS UPDATED (m1_00_Vitamin_B9-QM3_00000-B97-3C-TZ.en.tmp) ****
Finished Guess after   0.5 sec
Maximum memory used throughout the entire GUESS-calculation: 77.9 MB


           ************************************************************
           *        Program running with 16 parallel MPI-processes    *
           *              working on a common directory               *
           ************************************************************

-------------------------------------------------------------------------------------------
                                      ORCA LEAN-SCF
                              memory conserving SCF solver
-------------------------------------------------------------------------------------------

----------------------------------------D-I-I-S--------------------------------------------
Iteration    Energy (Eh)           Delta-E    RMSDP     MaxDP     DIISErr   Damp  Time(sec)
-------------------------------------------------------------------------------------------
               ***  Starting incremental Fock matrix formation  ***
    1    -1563.3353271022301669     0.00e+00  7.22e-03  9.66e-01  4.80e-01  0.700   2.0
Warning: op=0 Small HOMO/LUMO gap (   0.038) - skipping pre-diagonalization
         Will do a full diagonalization
    2    -1565.5033808637103903    -2.17e+00  4.54e-03  5.20e-01  3.34e-01  0.700   2.2
    3    -1566.5799461149722447    -1.08e+00  2.58e-03  1.99e-01  2.35e-01  0.700   2.0
                               ***Turning on AO-DIIS***
    4    -1567.3315750095284784    -7.52e-01  2.25e-03  2.27e-01  1.67e-01  0.700   2.0
    5    -1567.8614084555806585    -5.30e-01  1.49e-03  1.44e-01  1.14e-01  0.700   1.9
    6    -1568.2353033684371439    -3.74e-01  9.45e-04  8.51e-02  7.95e-02  0.700   1.9
    7    -1568.4998439891137423    -2.65e-01  2.17e-03  1.53e-01  5.56e-02  0.000   1.9
    8    -1569.1119610145474326    -6.12e-01  5.54e-04  7.13e-02  2.18e-02  0.000   2.0
    9    -1569.1167116626315874    -4.75e-03  1.58e-04  1.27e-02  9.43e-03  0.000   1.9
   10    -1569.1169651388468083    -2.53e-04  8.03e-05  1.18e-02  6.45e-03  0.000   1.9
                              *** Initializing SOSCF ***
---------------------------------------S-O-S-C-F--------------------------------------
Iteration    Energy (Eh)           Delta-E    RMSDP     MaxDP     MaxGrad    Time(sec)
--------------------------------------------------------------------------------------
   11    -1569.1172726004756441    -3.07e-04  3.25e-05  4.11e-03  1.27e-03     2.0
               *** Restarting incremental Fock matrix formation ***
   12    -1569.1172895123313538    -1.69e-05  4.79e-05  5.72e-03  2.19e-04     2.1
   13    -1569.1172822051025832     7.31e-06  1.81e-05  1.97e-03  5.96e-04     1.7
   14    -1569.1172916221398737    -9.42e-06  3.52e-05  4.12e-03  5.26e-05     1.7
   15    -1569.1172908289559018     7.93e-07  6.64e-06  4.51e-04  1.12e-04     1.7
   16    -1569.1172917916178449    -9.63e-07  6.03e-06  4.60e-04  1.09e-05     1.7
   17    -1569.1172917635590238     2.81e-08  3.00e-06  3.33e-04  2.60e-05     1.7
   18    -1569.1172918453917191    -8.18e-08  1.44e-05  1.42e-03  3.86e-06     1.7
   19    -1569.1172918238721650     2.15e-08  3.92e-06  4.65e-04  8.71e-06     1.7
   20    -1569.1172918669167302    -4.30e-08  9.90e-06  9.15e-04  1.21e-06     1.7
                  *** Gradient check signals convergence ***

               *****************************************************
               *                     SUCCESS                       *
               *           SCF CONVERGED AFTER  20 CYCLES          *
               *****************************************************

             **** ENERGY FILE WAS UPDATED (m1_00_Vitamin_B9-QM3_00000-B97-3C-TZ.en.tmp) ****

----------------
TOTAL SCF ENERGY
----------------

Total Energy       :      -1569.11729186691673 Eh          -42697.85223 eV

Components:
Nuclear Repulsion  :       3647.27611034429128 Eh           99247.42860 eV
Electronic Energy  :      -5216.39340221120801 Eh         -141945.28083 eV
One Electron Energy:      -9399.61038102698876 Eh         -255776.40189 eV
Two Electron Energy:       4183.21697881578075 Eh          113831.12106 eV

Virial components:
Potential Energy   :      -3133.46113243654872 Eh          -85265.81224 eV
Kinetic Energy     :       1564.34384056963177 Eh           42567.96002 eV
Virial Ratio       :          2.00305140799196

DFT components:
N(Alpha)           :      114.999960632790 electrons
N(Beta)            :      114.999960632790 electrons
N(Total)           :      229.999921265580 electrons
E(XC)              :     -209.329598814920 Eh       

---------------
SCF CONVERGENCE
---------------

  Last Energy change         ...    4.3045e-08  Tolerance :   1.0000e-08
  Last MAX-Density change    ...    9.1531e-04  Tolerance :   1.0000e-07
  Last RMS-Density change    ...    9.8962e-06  Tolerance :   5.0000e-09
  Last DIIS Error            ...    1.2670e-03  Tolerance :   5.0000e-07
  Last Orbital Gradient      ...    1.2098e-06  Tolerance :   1.0000e-05
  Last Orbital Rotation      ...    3.2938e-06  Tolerance :   1.0000e-05


----------------
ORBITAL ENERGIES
----------------

  NO   OCC          E(Eh)            E(eV) 
   0   2.0000     -18.792205      -511.3619 
   1   2.0000     -18.788170      -511.2521 
   2   2.0000     -18.748384      -510.1695 
   3   2.0000     -18.747030      -510.1326 
   4   2.0000     -18.744578      -510.0659 
   5   2.0000     -18.743309      -510.0314 
   6   2.0000     -14.049008      -382.2929 
   7   2.0000     -14.038955      -382.0194 
   8   2.0000     -14.015178      -381.3724 
   9   2.0000     -14.014436      -381.3522 
  10   2.0000     -14.004124      -381.0716 
  11   2.0000     -14.000010      -380.9596 
  12   2.0000     -13.981349      -380.4518 
  13   2.0000     -10.030754      -272.9507 
  14   2.0000     -10.029929      -272.9283 
  15   2.0000     -10.019302      -272.6391 
  16   2.0000     -10.016589      -272.5653 
  17   2.0000     -10.013392      -272.4783 
  18   2.0000      -9.974661      -271.4243 
  19   2.0000      -9.965226      -271.1676 
  20   2.0000      -9.948630      -270.7160 
  21   2.0000      -9.944466      -270.6027 
  22   2.0000      -9.942521      -270.5497 
  23   2.0000      -9.942060      -270.5372 
  24   2.0000      -9.941044      -270.5096 
  25   2.0000      -9.924970      -270.0722 
  26   2.0000      -9.917288      -269.8631 
  27   2.0000      -9.915007      -269.8011 
  28   2.0000      -9.913414      -269.7577 
  29   2.0000      -9.909777      -269.6587 
  30   2.0000      -9.907428      -269.5948 
  31   2.0000      -9.905774      -269.5498 
  32   2.0000      -1.046828       -28.4856 
  33   2.0000      -1.043302       -28.3897 
  34   2.0000      -1.003017       -27.2935 
  35   2.0000      -0.996734       -27.1225 
  36   2.0000      -0.960933       -26.1483 
  37   2.0000      -0.955401       -25.9978 
  38   2.0000      -0.944273       -25.6950 
  39   2.0000      -0.921907       -25.0864 
  40   2.0000      -0.888956       -24.1897 
  41   2.0000      -0.881025       -23.9739 
  42   2.0000      -0.854265       -23.2457 
  43   2.0000      -0.847421       -23.0595 
  44   2.0000      -0.825112       -22.4525 
  45   2.0000      -0.801633       -21.8136 
  46   2.0000      -0.763380       -20.7726 
  47   2.0000      -0.733550       -19.9609 
  48   2.0000      -0.713237       -19.4082 
  49   2.0000      -0.702768       -19.1233 
  50   2.0000      -0.687391       -18.7049 
  51   2.0000      -0.658088       -17.9075 
  52   2.0000      -0.648921       -17.6580 
  53   2.0000      -0.622527       -16.9398 
  54   2.0000      -0.613623       -16.6975 
  55   2.0000      -0.597803       -16.2671 
  56   2.0000      -0.588064       -16.0020 
  57   2.0000      -0.577555       -15.7161 
  58   2.0000      -0.573227       -15.5983 
  59   2.0000      -0.568982       -15.4828 
  60   2.0000      -0.557537       -15.1714 
  61   2.0000      -0.545528       -14.8446 
  62   2.0000      -0.533542       -14.5184 
  63   2.0000      -0.521373       -14.1873 
  64   2.0000      -0.505290       -13.7496 
  65   2.0000      -0.497349       -13.5336 
  66   2.0000      -0.495064       -13.4714 
  67   2.0000      -0.480089       -13.0639 
  68   2.0000      -0.473669       -12.8892 
  69   2.0000      -0.465141       -12.6571 
  70   2.0000      -0.464893       -12.6504 
  71   2.0000      -0.456912       -12.4332 
  72   2.0000      -0.448253       -12.1976 
  73   2.0000      -0.445270       -12.1164 
  74   2.0000      -0.440016       -11.9734 
  75   2.0000      -0.429213       -11.6795 
  76   2.0000      -0.428631       -11.6636 
  77   2.0000      -0.427565       -11.6346 
  78   2.0000      -0.422747       -11.5035 
  79   2.0000      -0.417692       -11.3660 
  80   2.0000      -0.410879       -11.1806 
  81   2.0000      -0.407249       -11.0818 
  82   2.0000      -0.405484       -11.0338 
  83   2.0000      -0.400351       -10.8941 
  84   2.0000      -0.394123       -10.7246 
  85   2.0000      -0.391089       -10.6421 
  86   2.0000      -0.388436       -10.5699 
  87   2.0000      -0.378263       -10.2931 
  88   2.0000      -0.376124       -10.2348 
  89   2.0000      -0.370939       -10.0938 
  90   2.0000      -0.361871        -9.8470 
  91   2.0000      -0.353959        -9.6317 
  92   2.0000      -0.348726        -9.4893 
  93   2.0000      -0.346460        -9.4277 
  94   2.0000      -0.342805        -9.3282 
  95   2.0000      -0.337350        -9.1798 
  96   2.0000      -0.324664        -8.8346 
  97   2.0000      -0.321003        -8.7349 
  98   2.0000      -0.307880        -8.3779 
  99   2.0000      -0.304040        -8.2733 
 100   2.0000      -0.293745        -7.9932 
 101   2.0000      -0.286335        -7.7916 
 102   2.0000      -0.272966        -7.4278 
 103   2.0000      -0.271541        -7.3890 
 104   2.0000      -0.266880        -7.2622 
 105   2.0000      -0.264761        -7.2045 
 106   2.0000      -0.262516        -7.1434 
 107   2.0000      -0.251714        -6.8495 
 108   2.0000      -0.246610        -6.7106 
 109   2.0000      -0.244624        -6.6566 
 110   2.0000      -0.241549        -6.5729 
 111   2.0000      -0.236465        -6.4345 
 112   2.0000      -0.216938        -5.9032 
 113   2.0000      -0.208072        -5.6619 
 114   2.0000      -0.196656        -5.3513 
 115   0.0000      -0.105727        -2.8770 
 116   0.0000      -0.081998        -2.2313 
 117   0.0000      -0.070922        -1.9299 
 118   0.0000      -0.053533        -1.4567 
 119   0.0000      -0.048234        -1.3125 
 120   0.0000      -0.044174        -1.2020 
 121   0.0000      -0.023510        -0.6397 
 122   0.0000       0.000159         0.0043 
 123   0.0000       0.007489         0.2038 
 124   0.0000       0.011685         0.3180 
 125   0.0000       0.014794         0.4026 
*Only the first 10 virtual orbitals were printed.

                    ********************************
                    * MULLIKEN POPULATION ANALYSIS *
                    ********************************

-----------------------
MULLIKEN ATOMIC CHARGES
-----------------------
   0 O :   -0.462526
   1 O :   -0.560114
   2 O :   -0.470604
   3 O :   -0.539402
   4 O :   -0.441313
   5 O :   -0.488858
   6 N :   -0.402851
   7 N :   -0.340054
   8 N :   -0.042791
   9 N :   -0.037911
  10 N :   -0.368758
  11 N :   -0.145010
  12 N :   -0.616826
  13 C :   -0.111542
  14 C :   -0.347770
  15 C :   -0.207162
  16 C :    0.287518
  17 C :   -0.059062
  18 C :    0.406272
  19 C :   -0.050942
  20 C :   -0.492404
  21 C :    0.034791
  22 C :   -0.175679
  23 C :   -0.120509
  24 C :   -0.071645
  25 C :    0.353692
  26 C :    0.223191
  27 C :    0.007509
  28 C :   -0.149695
  29 C :   -0.083315
  30 C :    0.249965
  31 C :    0.354501
  32 H :    0.228884
  33 H :    0.201209
  34 H :    0.183397
  35 H :    0.191817
  36 H :    0.185763
  37 H :    0.362139
  38 H :    0.197610
  39 H :    0.210396
  40 H :    0.175316
  41 H :    0.206433
  42 H :    0.311186
  43 H :    0.176932
  44 H :    0.168730
  45 H :    0.154752
  46 H :    0.408390
  47 H :    0.389003
  48 H :    0.405019
  49 H :    0.366221
  50 H :    0.346107
Sum of atomic charges:    0.0000000

--------------------------------
MULLIKEN REDUCED ORBITAL CHARGES
--------------------------------
  0 O s       :     3.759564  s :     3.759564
      pz      :     1.686302  p :     4.672125
      px      :     1.691346
      py      :     1.294477
      dz2     :     0.006977  d :     0.030837
      dxz     :     0.012217
      dyz     :     0.004985
      dx2y2   :     0.003082
      dxy     :     0.003576

  1 O s       :     3.861242  s :     3.861242
      pz      :     1.511855  p :     4.647591
      px      :     1.397298
      py      :     1.738438
      dz2     :     0.010215  d :     0.051280
      dxz     :     0.010797
      dyz     :     0.009615
      dx2y2   :     0.006026
      dxy     :     0.014628

  2 O s       :     3.864338  s :     3.864338
      pz      :     1.578760  p :     4.556501
      px      :     1.459910
      py      :     1.517832
      dz2     :     0.001051  d :     0.049764
      dxz     :     0.009325
      dyz     :     0.018373
      dx2y2   :     0.009762
      dxy     :     0.011254

  3 O s       :     3.771621  s :     3.771621
      pz      :     1.642031  p :     4.736985
      px      :     1.506558
      py      :     1.588397
      dz2     :     0.012871  d :     0.030796
      dxz     :     0.006130
      dyz     :     0.007210
      dx2y2   :     0.002617
      dxy     :     0.001967

  4 O s       :     3.854160  s :     3.854160
      pz      :     1.337588  p :     4.550902
      px      :     1.663461
      py      :     1.549853
      dz2     :     0.013049  d :     0.036251
      dxz     :     0.005745
      dyz     :     0.004926
      dx2y2   :     0.007159
      dxy     :     0.005372

  5 O s       :     3.841390  s :     3.841390
      pz      :     1.430884  p :     4.613645
      px      :     1.616489
      py      :     1.566271
      dz2     :     0.005424  d :     0.033824
      dxz     :     0.010975
      dyz     :     0.010054
      dx2y2   :     0.000485
      dxy     :     0.006886

  6 N s       :     3.342796  s :     3.342796
      pz      :     1.644065  p :     4.019266
      px      :     1.208825
      py      :     1.166376
      dz2     :     0.004634  d :     0.040789
      dxz     :     0.003019
      dyz     :     0.005566
      dx2y2   :     0.013985
      dxy     :     0.013584

  7 N s       :     3.417229  s :     3.417229
      pz      :     1.561868  p :     3.878931
      px      :     1.211445
      py      :     1.105618
      dz2     :     0.007898  d :     0.043893
      dxz     :     0.008257
      dyz     :     0.006036
      dx2y2   :     0.011110
      dxy     :     0.010593

  8 N s       :     3.489123  s :     3.489123
      pz      :     1.246650  p :     3.504910
      px      :     1.139481
      py      :     1.118779
      dz2     :     0.007907  d :     0.048758
      dxz     :     0.008847
      dyz     :     0.009675
      dx2y2   :     0.013431
      dxy     :     0.008898

  9 N s       :     3.482517  s :     3.482517
      pz      :     1.261223  p :     3.509889
      px      :     1.115733
      py      :     1.132934
      dz2     :     0.008713  d :     0.045505
      dxz     :     0.008851
      dyz     :     0.008073
[...]
114:   1459.16   0.007413   37.46  0.001585  (-0.005163  0.039285 -0.003929)
115:   1462.98   0.002227   11.26  0.000475  ( 0.008377  0.019169 -0.006124)
116:   1476.49   0.029444  148.80  0.006223  ( 0.062813  0.040204  0.025715)
117:   1488.80   0.015133   76.47  0.003172  (-0.005603 -0.053425 -0.016922)
118:   1490.58   0.017546   88.67  0.003673  ( 0.040682 -0.028088  0.035062)
119:   1492.12   0.001671    8.44  0.000349  ( 0.003208  0.011344 -0.014506)
120:   1505.47   0.005847   29.55  0.001212  ( 0.034284  0.004295 -0.004260)
121:   1510.82   0.003584   18.11  0.000740  (-0.005533 -0.003000 -0.026470)
122:   1523.15   0.027715  140.06  0.005678  (-0.029812  0.068371 -0.010723)
123:   1536.88   0.022016  111.26  0.004470  (-0.030659  0.056561  0.018198)
124:   1548.75   0.023108  116.78  0.004656  (-0.024375 -0.062526  0.012346)
125:   1576.28   0.035976  181.81  0.007122  ( 0.049555 -0.064191  0.023368)
126:   1592.91   0.014399   72.77  0.002821  ( 0.052047 -0.005052  0.009304)
127:   1621.82   0.026504  133.94  0.005100  ( 0.069504  0.015829 -0.004294)
128:   1630.65   0.062653  316.62  0.011990  ( 0.074741 -0.076436  0.023694)
129:   1642.96   0.018012   91.02  0.003421  (-0.041425  0.040639  0.007315)
130:   1683.57   0.087384  441.60  0.016197  (-0.093208 -0.036570 -0.078564)
131:   1690.31   0.059765  302.03  0.011034  ( 0.037711 -0.097554 -0.009746)
132:   1736.40   0.042941  217.01  0.007717  (-0.022418  0.027926  0.080218)
133:   1770.74   0.079050  399.49  0.013931  ( 0.009358  0.072784 -0.092445)
134:   2839.31   0.253799  1282.59  0.027895  (-0.102146  0.113076  0.068371)
135:   2991.89   0.133119  672.73  0.013885  (-0.050096  0.078256 -0.072465)
136:   3001.25   0.002522   12.75  0.000262  (-0.005540 -0.015217 -0.000029)
137:   3013.20   0.003544   17.91  0.000367  (-0.009246  0.001394 -0.016721)
138:   3024.98   0.006652   33.62  0.000686  ( 0.015783 -0.011365 -0.017548)
139:   3043.06   0.009632   48.67  0.000988  ( 0.029393 -0.010258  0.004304)
140:   3057.97   0.003923   19.83  0.000400  ( 0.015750 -0.009842  0.007445)
141:   3072.25   0.008959   45.27  0.000910  (-0.015920  0.025621 -0.000328)
142:   3092.64   0.001893    9.57  0.000191  (-0.000562 -0.012776 -0.005244)
143:   3120.26   0.003221   16.28  0.000322  ( 0.003611 -0.017442 -0.002202)
144:   3134.94   0.000705    3.56  0.000070  ( 0.003629 -0.004419  0.006121)
145:   3136.98   0.001330    6.72  0.000132  ( 0.002440 -0.010789 -0.003150)
146:   3169.78   0.000501    2.53  0.000049  (-0.001437 -0.006861  0.000436)
147:   3182.86   0.000718    3.63  0.000070  (-0.008141 -0.000517 -0.001960)
148:   3234.05   0.141348  714.31  0.013639  ( 0.045354 -0.101506 -0.035757)
149:   3464.70   0.046379  234.38  0.004177  ( 0.054406 -0.032686 -0.012201)
150:   3517.51   0.002514   12.70  0.000223  ( 0.002682 -0.014640  0.001216)
151:   3520.48   0.026409  133.46  0.002341  ( 0.021485  0.042068 -0.010469)
152:   3617.57   0.012991   65.65  0.001121  ( 0.004343  0.018218  0.027747)

* The epsilon (eps) is given for a Dirac delta lineshape.
** The dipole moment derivative (T) already includes vibrational overlap.

The first frequency considered to be a vibration is 6
The total number of vibrations considered is 147


--------------------------
THERMOCHEMISTRY AT 298.15K
--------------------------

Temperature         ...   298.15 K
Pressure            ...     1.00 atm
Total Mass          ...   441.40 AMU
Quasi RRHO          ...     True
Cut-Off Frequency   ...     1.00 cm^-1

Throughout the following assumptions are being made:
  (1) The electronic state is orbitally nondegenerate
  (2) There are no thermally accessible electronically excited states
  (3) Hindered rotations indicated by low frequency modes are not
      treated as such but are treated as vibrations and this may
      cause some error
  (4) All equations used are the standard statistical mechanics
      equations for an ideal gas
  (5) All vibrations are strictly harmonic

freq.      31.82  E(vib)   ...       0.55 
freq.      40.01  E(vib)   ...       0.54 
freq.      51.56  E(vib)   ...       0.52 
freq.      65.68  E(vib)   ...       0.50 
freq.      69.76  E(vib)   ...       0.50 
freq.      81.25  E(vib)   ...       0.48 
freq.      82.96  E(vib)   ...       0.48 
freq.      94.49  E(vib)   ...       0.47 
freq.     108.92  E(vib)   ...       0.45 
freq.     127.76  E(vib)   ...       0.43 
freq.     138.68  E(vib)   ...       0.42 
freq.     142.11  E(vib)   ...       0.41 
freq.     159.34  E(vib)   ...       0.39 
freq.     168.98  E(vib)   ...       0.38 
freq.     171.93  E(vib)   ...       0.38 
freq.     179.58  E(vib)   ...       0.37 
freq.     181.53  E(vib)   ...       0.37 
freq.     225.52  E(vib)   ...       0.33 
freq.     236.33  E(vib)   ...       0.32 
freq.     249.31  E(vib)   ...       0.31 
freq.     267.97  E(vib)   ...       0.29 
freq.     279.57  E(vib)   ...       0.28 
freq.     294.13  E(vib)   ...       0.27 
freq.     306.99  E(vib)   ...       0.26 
freq.     327.84  E(vib)   ...       0.24 
freq.     359.10  E(vib)   ...       0.22 
freq.     363.36  E(vib)   ...       0.22 
freq.     374.38  E(vib)   ...       0.21 
freq.     395.80  E(vib)   ...       0.20 
freq.     407.51  E(vib)   ...       0.19 
freq.     418.76  E(vib)   ...       0.18 
freq.     430.16  E(vib)   ...       0.18 
freq.     443.79  E(vib)   ...       0.17 
freq.     462.42  E(vib)   ...       0.16 
freq.     477.19  E(vib)   ...       0.15 
freq.     490.51  E(vib)   ...       0.15 
freq.     497.09  E(vib)   ...       0.14 
freq.     521.67  E(vib)   ...       0.13 
freq.     537.88  E(vib)   ...       0.12 
freq.     550.32  E(vib)   ...       0.12 
freq.     571.44  E(vib)   ...       0.11 
freq.     587.35  E(vib)   ...       0.10 
freq.     595.80  E(vib)   ...       0.10 
freq.     600.46  E(vib)   ...       0.10 
freq.     605.01  E(vib)   ...       0.10 
freq.     630.24  E(vib)   ...       0.09 
freq.     638.26  E(vib)   ...       0.09 
freq.     651.97  E(vib)   ...       0.08 
freq.     660.59  E(vib)   ...       0.08 
freq.     665.40  E(vib)   ...       0.08 
freq.     693.94  E(vib)   ...       0.07 
freq.     698.15  E(vib)   ...       0.07 
freq.     716.70  E(vib)   ...       0.07 
freq.     719.50  E(vib)   ...       0.07 
freq.     722.73  E(vib)   ...       0.07 
freq.     753.22  E(vib)   ...       0.06 
freq.     763.12  E(vib)   ...       0.06 
freq.     770.68  E(vib)   ...       0.05 
freq.     785.87  E(vib)   ...       0.05 
freq.     806.71  E(vib)   ...       0.05 
freq.     810.57  E(vib)   ...       0.05 
freq.     811.43  E(vib)   ...       0.05 
freq.     837.12  E(vib)   ...       0.04 
freq.     841.93  E(vib)   ...       0.04 
freq.     856.17  E(vib)   ...       0.04 
freq.     879.05  E(vib)   ...       0.04 
freq.     892.34  E(vib)   ...       0.03 
freq.     923.92  E(vib)   ...       0.03 
freq.     927.33  E(vib)   ...       0.03 
freq.     931.67  E(vib)   ...       0.03 
freq.     945.08  E(vib)   ...       0.03 
freq.     946.99  E(vib)   ...       0.03 
freq.     951.01  E(vib)   ...       0.03 
freq.     971.05  E(vib)   ...       0.03 
freq.     986.17  E(vib)   ...       0.02 
freq.    1016.63  E(vib)   ...       0.02 
freq.    1025.21  E(vib)   ...       0.02 
freq.    1031.41  E(vib)   ...       0.02 
freq.    1041.98  E(vib)   ...       0.02 
freq.    1064.65  E(vib)   ...       0.02 
freq.    1075.79  E(vib)   ...       0.02 
freq.    1121.99  E(vib)   ...       0.01 
freq.    1123.07  E(vib)   ...       0.01 
freq.    1145.95  E(vib)   ...       0.01 
freq.    1160.07  E(vib)   ...       0.01 
freq.    1163.49  E(vib)   ...       0.01 
freq.    1203.22  E(vib)   ...       0.01 
freq.    1206.70  E(vib)   ...       0.01 
freq.    1210.20  E(vib)   ...       0.01 
freq.    1224.94  E(vib)   ...       0.01 
freq.    1236.73  E(vib)   ...       0.01 
freq.    1267.74  E(vib)   ...       0.01 
freq.    1273.04  E(vib)   ...       0.01 
freq.    1279.08  E(vib)   ...       0.01 
freq.    1284.68  E(vib)   ...       0.01 
freq.    1301.71  E(vib)   ...       0.01 
freq.    1327.57  E(vib)   ...       0.01 
freq.    1332.00  E(vib)   ...       0.01 
freq.    1343.44  E(vib)   ...       0.01 
freq.    1349.58  E(vib)   ...       0.01 
freq.    1351.21  E(vib)   ...       0.01 
freq.    1365.17  E(vib)   ...       0.01 
freq.    1371.45  E(vib)   ...       0.01 
freq.    1372.12  E(vib)   ...       0.01 
freq.    1385.40  E(vib)   ...       0.00 
freq.    1398.95  E(vib)   ...       0.00 
freq.    1403.48  E(vib)   ...       0.00 
freq.    1443.05  E(vib)   ...       0.00 
freq.    1459.16  E(vib)   ...       0.00 
freq.    1462.98  E(vib)   ...       0.00 
freq.    1476.49  E(vib)   ...       0.00 
freq.    1488.80  E(vib)   ...       0.00 
freq.    1490.58  E(vib)   ...       0.00 
freq.    1492.12  E(vib)   ...       0.00 
freq.    1505.47  E(vib)   ...       0.00 
freq.    1510.82  E(vib)   ...       0.00 
freq.    1523.15  E(vib)   ...       0.00 
freq.    1536.88  E(vib)   ...       0.00 
freq.    1548.75  E(vib)   ...       0.00 
freq.    1576.28  E(vib)   ...       0.00 
freq.    1592.91  E(vib)   ...       0.00 
freq.    1621.82  E(vib)   ...       0.00 
freq.    1630.65  E(vib)   ...       0.00 
freq.    1642.96  E(vib)   ...       0.00 
freq.    1683.57  E(vib)   ...       0.00 
freq.    1690.31  E(vib)   ...       0.00 
freq.    1736.40  E(vib)   ...       0.00 
freq.    1770.74  E(vib)   ...       0.00 
freq.    2839.31  E(vib)   ...       0.00 
freq.    2991.89  E(vib)   ...       0.00 
freq.    3001.25  E(vib)   ...       0.00 
freq.    3013.20  E(vib)   ...       0.00 
freq.    3024.98  E(vib)   ...       0.00 
freq.    3043.06  E(vib)   ...       0.00 
freq.    3057.97  E(vib)   ...       0.00 
freq.    3072.25  E(vib)   ...       0.00 
freq.    3092.64  E(vib)   ...       0.00 
freq.    3120.26  E(vib)   ...       0.00 
freq.    3134.94  E(vib)   ...       0.00 
freq.    3136.98  E(vib)   ...       0.00 
freq.    3169.78  E(vib)   ...       0.00 
freq.    3182.86  E(vib)   ...       0.00 
freq.    3234.05  E(vib)   ...       0.00 
freq.    3464.70  E(vib)   ...       0.00 
freq.    3517.51  E(vib)   ...       0.00 
freq.    3520.48  E(vib)   ...       0.00 
freq.    3617.57  E(vib)   ...       0.00 

------------
INNER ENERGY
------------

The inner energy is: U= E(el) + E(ZPE) + E(vib) + E(rot) + E(trans)
    E(el)   - is the total energy from the electronic structure calculation
              = E(kin-el) + E(nuc-el) + E(el-el) + E(nuc-nuc)
    E(ZPE)  - the the zero temperature vibrational energy from the frequency calculation
    E(vib)  - the the finite temperature correction to E(ZPE) due to population
              of excited vibrational states
    E(rot)  - is the rotational thermal energy
    E(trans)- is the translational thermal energy

Summary of contributions to the inner energy U:
Electronic energy                ...  -1569.49369483 Eh
Zero point energy                ...      0.38852135 Eh     243.80 kcal/mol
Thermal vibrational correction   ...      0.02378598 Eh      14.93 kcal/mol
Thermal rotational correction    ...      0.00141627 Eh       0.89 kcal/mol
Thermal translational correction ...      0.00141627 Eh       0.89 kcal/mol
-----------------------------------------------------------------------
Total thermal energy                  -1569.07855495 Eh


Summary of corrections to the electronic energy:
(perhaps to be used in another calculation)
Total thermal correction                  0.02661852 Eh      16.70 kcal/mol
Non-thermal (ZPE) correction              0.38852135 Eh     243.80 kcal/mol
-----------------------------------------------------------------------
Total correction                          0.41513988 Eh     260.50 kcal/mol


--------
ENTHALPY
--------

The enthalpy is H = U + kB*T
                kB is Boltzmann's constant
Total thermal energy              ...  -1569.07855495 Eh 
Thermal Enthalpy correction       ...      0.00094421 Eh       0.59 kcal/mol
-----------------------------------------------------------------------
Total Enthalpy                    ...  -1569.07761074 Eh


Note: Only C1 symmetry has been detected, increase convergence thresholds 
      if your molecule has a higher symmetry. Symmetry factor of 1.0 is   
      used for the rotational entropy correction. 
 

Note: Rotational entropy computed according to Herzberg 
Infrared and Raman Spectra, Chapter V,1, Van Nostrand Reinhold, 1945 
Point Group:  C1, Symmetry Number:   1  
Rotational constants in cm-1:     0.007760     0.004073     0.003611 

Vibrational entropy computed according to the QRRHO of S. Grimme
Chem.Eur.J. 2012 18 9955 using a reference frequency of 100.0 cm-1


-------
ENTROPY
-------

The entropy contributions are T*S = T*(S(el)+S(vib)+S(rot)+S(trans))
     S(el)   - electronic entropy
     S(vib)  - vibrational entropy
     S(rot)  - rotational entropy
     S(trans)- translational entropy
The entropies will be listed as multiplied by the temperature to get
units of energy

Electronic entropy                ...      0.00000000 Eh      0.00 kcal/mol
Vibrational entropy               ...      0.04135509 Eh     25.95 kcal/mol
Rotational entropy                ...      0.01705760 Eh     10.70 kcal/mol
Translational entropy             ...      0.02097411 Eh     13.16 kcal/mol
-----------------------------------------------------------------------
Final entropy term                ...      0.07938680 Eh     49.82 kcal/mol

In case the symmetry of your molecule has not been determined correctly
or in case you have a reason to use a different symmetry number we print 
out the resulting rotational entropy values for sn=1,12:

 non-linear molecules -----------------------------------
|  sn= 1 | S(rot)=       0.01705760 Eh     10.70 kcal/mol|
|  sn= 2 | S(rot)=       0.01640315 Eh     10.29 kcal/mol|
|  sn= 3 | S(rot)=       0.01602031 Eh     10.05 kcal/mol|
|  sn= 4 | S(rot)=       0.01574869 Eh      9.88 kcal/mol|
|  sn= 5 | S(rot)=       0.01553800 Eh      9.75 kcal/mol|
|  sn= 6 | S(rot)=       0.01536586 Eh      9.64 kcal/mol|
|  sn= 7 | S(rot)=       0.01522031 Eh      9.55 kcal/mol|
|  sn= 8 | S(rot)=       0.01509423 Eh      9.47 kcal/mol|
|  sn= 9 | S(rot)=       0.01498302 Eh      9.40 kcal/mol|
|  sn=10 | S(rot)=       0.01488355 Eh      9.34 kcal/mol|
|  sn=11 | S(rot)=       0.01479356 Eh      9.28 kcal/mol|
|  sn=12 | S(rot)=       0.01471140 Eh      9.23 kcal/mol|
 linear molecules ---------------------------------------
|  Dinfh | S(rot)=       0.01063578 Eh      6.67 kcal/mol|
|  Cinfv | S(rot)=       0.01129023 Eh      7.08 kcal/mol|
 --------------------------------------------------------


-------------------
GIBBS FREE ENERGY
-------------------

The Gibbs free energy is G = H - T*S

Total enthalpy                    ...  -1569.07761074 Eh 
Total entropy correction          ...     -0.07938680 Eh    -49.82 kcal/mol
-----------------------------------------------------------------------
Final Gibbs free energy         ...  -1569.15699754 Eh

For completeness - the Gibbs free energy minus the electronic energy
G-E(el)                           ...      0.33669729 Eh    211.28 kcal/mol


Maximum memory used throughout the entire PROP-calculation: 202.7 MB

--------------------------------
SUGGESTED CITATIONS FOR THIS RUN
--------------------------------

Below you find a list of papers that are relevant to this ORCA run
We neither can nor want to force you to cite these papers, but we appreciate if you do
You receive ORCA, which is the product of decades of hard work by many enthusiastic individuals, for free
The only thing we kindly ask in return is that you cite our papers,
We deeply appreciate it, if you show your appreciation for ORCA by not just citing the generic ORCA reference.

Please note that relegating all ORCA citations to the supporting information does *not* help us.
SI sections are not indexed - citations you put there will not count into any citation statistics
But we need these citations in order to attract the funding resources that allow us to do what we are doing

Therefore, if you are a happy ORCA user, please consider citing a few of the papers listed below in the main body of your paper

In addition to the list printed below, the program has created the file m1_00_Vitamin_B9-QM3_00000-B97-3C-TZ.bibtex that contains the list in bibtex format
You can import this file easily into all common literature databanks and citation aid programs


List of essential papers. We consider these as the minimum necessary citations

  1. Neese,F.
     Software update: the ORCA program system, version 5.0
     WIRES Comput. Molec. Sci., 2022 12(1)e1606
     doi.org/10.1002/wcms.1606

List of papers to cite with high priority. The work reported in these papers was absolutely
necessary for this run to complete.
Our perspective: the developers of density functionals and basis sets usually get cited in chemistry papers
Good! But without the algorithms to do something with them, the functionals or basis sets would not do anything.
Hence, in our opinion, the algorithm design and method developments papers are equally worthy of getting cited

  1. Neese,F.
     An improvement of the resolution of the identity approximation for the formation of the Coulomb matrix
     J. Comp. Chem., 2003 24(14)1740-1747
     doi.org/10.1002/jcc.10318
  2. Bykov,D.; Petrenko,T.; Izsak,R.; Kossmann,S.; Becker,U.; Valeev,E.; Neese,F.
     Efficient implementation of the analytic second derivatives of Hartree-Fock and hybrid DFT energies: a detailed analysis of different approximations
     Molec. Phys., 2015 113 1961-1977
     doi.org/10.1080/00268976.2015.1025114
  3. Neese,F.
     The SHARK Integral Generation and Digestion System
     J. Comp. Chem., 2022  1-16
     doi.org/10.1002/jcc.26942
  4. Grimme,S.; Antony,J.; Ehrlich,S.; Krieg,H.
     A consistent and accurate ab initio parametrization of density functional dispersion correction (DFT-D) for the 94 elements H-Pu
     J. Chem. Phys., 2010 132 154104
     doi.org/10.1063/1.3382344
  5. Grimme,S.; Ehrlich,S.; Goerigk,L.
     Effect of the damping function in dispersion corrected density functional theory
     J. Comput. Chem., 2011 32(7)1456-1465
     doi.org/10.1002/jcc.21759

List of suggested additional citations. These are papers that are important in the 'surrounding' of 
of this run, or papers that preceded the highly important papers. If you like your results we are grateful for a citation.

  1. Neese,F.
     The ORCA program system
     WIRES Comput. Molec. Sci., 2012 2(1)73-78
     doi.org/10.1002/wcms.81
  2. Neese,F.
     Software update: the ORCA program system, version 4.0
     WIRES Comput. Molec. Sci., 2018 8(1)1-6
     doi.org/10.1002/wcms.1327
  3. Neese,F.; Wennmohs,F.; Becker,U.; Riplinger,C.
     The ORCA quantum chemistry program package
     J. Chem. Phys., 2020 152 Art. No. L224108
     doi.org/10.1063/5.0004608

List of optional additional citations

  1. Neese,F.
     Approximate second-order SCF convergence for spin unrestricted wavefunctions
     Chem. Phys. Lett., 2000 325(1-3)93-98
     doi.org/10.1016/s0009-2614(00)00662-x

Timings for individual modules:

Sum of individual times          ...     1655.750 sec (=  27.596 min)
Startup calculation              ...      107.234 sec (=   1.787 min)   6.5 %
SCF iterations                   ...      459.319 sec (=   7.655 min)  27.7 %
Property integrals               ...      313.501 sec (=   5.225 min)  18.9 %
SCF Response                     ...      472.406 sec (=   7.873 min)  28.5 %
Property calculations            ...      106.964 sec (=   1.783 min)   6.5 %
SCF Gradient evaluation          ...      196.043 sec (=   3.267 min)  11.8 %
Geometry relaxation              ...        0.284 sec (=   0.005 min)   0.0 %
                             ****ORCA TERMINATED NORMALLY****
TOTAL RUN TIME: 0 days 0 hours 27 minutes 39 seconds 804 msec
