
                                 *****************
                                 * O   R   C   A *
                                 *****************

                                            #,                                       
                                            ###                                      
                                            ####                                     
                                            #####                                    
                                            ######                                   
                                           ########,                                 
                                     ,,################,,,,,                         
                               ,,#################################,,                 
                          ,,##########################################,,             
                       ,#########################################, ''#####,          
                    ,#############################################,,   '####,        
                  ,##################################################,,,,####,       
                ,###########''''           ''''###############################       
              ,#####''   ,,,,##########,,,,          '''####'''          '####       
            ,##' ,,,,###########################,,,                        '##       
           ' ,,###''''                  '''############,,,                           
         ,,##''                                '''############,,,,        ,,,,,,###''
      ,#''                                            '''#######################'''  
     '                                                          ''''####''''         
             ,#######,   #######,   ,#######,      ##                                
            ,#'     '#,  ##    ##  ,#'     '#,    #''#        ,####,   ,####,        
            ##       ##  ##   ,#'  ##            #'  '#       #'       #'  '#        
            ##       ##  #######   ##           ,######,      #####,   #    #        
            '#,     ,#'  ##    ##  '#,     ,#' ,#      #,     #,   #   #,  ,#        
             '#######'   ##     ##  '#######'  #'      '#     '####' # '####'        



                #########################################################
                #                        -***-                          #
                #          Department of theory and spectroscopy        #
                #                                                       #
                #                      Frank Neese                      #
                #                                                       #
                #     Directorship, Architecture, Infrastructure        #
                #                    SHARK, DRIVERS                     #
                #        Core code/Algorithms in most modules           #
                #                                                       #
                #        Max Planck Institute fuer Kohlenforschung      #
                #                Kaiser Wilhelm Platz 1                 #
                #                 D-45470 Muelheim/Ruhr                 #
                #                      Germany                          #
                #                                                       #
                #                  All rights reserved                  #
                #                        -***-                          #
                #########################################################


                         Program Version 6.0.1  -  RELEASE   -


 With contributions from (in alphabetic order):
[Max-Planck-Institut fuer Kohlenforschung]                               
  Daniel Aravena         : Magnetic Suceptibility                        
  Michael Atanasov       : Ab Initio Ligand Field Theory (pilot matlab implementation)
  Alexander A. Auer      : GIAO ZORA, VPT2 properties, NMR spectrum      
  Ute Becker             : All parallelization in ORCA, NUMFREQ, NUMCALC 
  Giovanni Bistoni       : ED, misc. LED, open-shell LED, HFLD           
  Martin Brehm           : Molecular dynamics                            
  Dmytro Bykov           : pre 5.0 version of the SCF Hessian            
  Marcos Casanova-Páez   : Triplet and SCS-CIS(D). UHF-(DLPNO)-IP/EA/STEOM-CCSD. UHF-CVS-IP/STEOM-CCSD   
  Vijay G. Chilkuri      : MRCI spin determinant printing, contributions to CSF-ICE 
  Pauline Colinet        : FMM embedding                                 
  Dipayan Datta          : RHF DLPNO-CCSD density                        
  Achintya Kumar Dutta   : EOM-CC, STEOM-CC                              
  Nicolas Foglia         : Exact transition moments, OPA infrastructure, MCD improvements    
  Dmitry Ganyushin       : Spin-Orbit,Spin-Spin,Magnetic field MRCI      
  Miquel Garcia-Rates    : C-PCM and meta-GGA Hessian, CCSD/C-PCM, Gaussian charge scheme 
  Tiago L. C. Gouveia    : GS-ROHF, GS-ROCIS                             
  Yang Guo               : DLPNO-NEVPT2, F12-NEVPT2, CIM, IAO-localization        
  Andreas Hansen         : Spin unrestricted coupled pair/coupled cluster methods 
  Ingolf Harden          : AUTO-CI MPn and infrastructure                
  Benjamin Helmich-Paris : MC-RPA, TRAH-(SCF,CASSCF), AVAS, COSX integrals, SCF dyn. polar. 
  Lee Huntington         : MR-EOM, pCC                                   
  Robert Izsak           : Overlap fitted RIJCOSX, COSX-SCS-MP3, EOM     
  Riya Kayal             : Wick's Theorem for AUTO-CI, AUTO-CI UHF-CCSDT 
  Emily Kempfer          : AUTO-CI, RHF CISDT and CCSDT                  
  Christian Kollmar      : KDIIS, OOCD, Brueckner-CCSD(T), CCSD density, CASPT2, CASPT2-K, improved NEVPT2 
  Axel Koslowski         : Symmetry handling                             
  Simone Kossmann        : meta-GGA functionals, TD-DFT gradient, OOMP2, (MP2 Hessian; deprecated post 5.0) 
  Lucas Lang             : DCDCAS                                        
  Marvin Lechner         : AUTO-CI (C++ implementation), FIC-MRCC        
  Spencer Leger          : CASSCF response                               
  Dagmar Lenk            : GEPOL surface, SMD, ORCA-2-JSON               
  Dimitrios Liakos       : Extrapolation schemes; Compound Job, initial MDCI parallelization 
  Dimitrios Manganas     : Further ROCIS development; embedding schemes. LFT, Crystal Embedding 
  Dimitrios Pantazis     : SARC Basis sets                               
  Anastasios Papadopoulos: AUTO-CI, single reference methods and gradients 
  Taras Petrenko         : pre 6.0 DFT Hessian and TD-DFT gradient, (ASA, deprecated), ECA, 1-Electron XAS/XES, NRVS 
  Peter Pinski           : DLPNO-MP2, DLPNO-MP2 Gradient                 
  Christoph Reimann      : Effective Core Potentials                     
  Marius Retegan         : Local ZFS, SOC                                
  Christoph Riplinger    : Optimizer, TS searches, QM/MM, DLPNO-CCSD(T), (RO)-DLPNO pert. Triples 
  Michael Roemelt        : Original ROCIS implementation                 
  Masaaki Saitow         : Open-shell DLPNO-CCSD energy and density      
  Barbara Sandhoefer     : DKH picture change effects                    
  Kantharuban Sivalingam : CASSCF convergence/infrastructure, NEVPT2 and variants, FIC-MRCI 
  Bernardo de Souza      : ESD, SOC TD-DFT                               
  Georgi L. Stoychev     : AutoAux, RI-MP2 NMR, DLPNO-MP2 response, X2C  
  Van Anh Tran           : RI-MP2 g-tensors                              
  Willem Van den Heuvel  : Paramagnetic NMR                              
  Zikuan Wang            : NOTCH, Electric field optimization            
  Frank Wennmohs         : Technical directorship and infrastructure     
  Hang Xu                : AUTO-CI-Response properties                   
                                                                         
[FACCTs GmbH]                                                            
  Markus Bursch, Miquel Garcia-Rates, Christoph Riplinger, Bernardo de Souza, Georgi L. Stoychev 
                                                                 
  APM, Basis sets (HGBS, AHGBS, def-TZVP (Ac-Lr), def2-XVPD (La-Lu)), CI-OPT, improved COSX, DLPNO-Multilevel,           
  DOCKER, DRACO, updates on ESD, GOAT, IRC, LR-CPCM, MBIS, meta-GGA TD-DFT gradient, ML-optimized integration grids, 
  MM, NACMEs, nearIR, NEB, NEB-TS, NL-DFT gradient (VV10), 2- and 3-layer-ONIOM, interface openCOSMO-RS, QMMM,   
  Crystal-QMMM, SF, symmetry and pop. for TD-DFT, r2SCAN hybrids, SOLVATOR                                   
                                                                         
[Other institutions]                                                     
  V. Asgeirsson          : NEB                                           
  Christoph Bannwarth    : sTDA-DFT, sTD-DFT, PBEh-3c, B97-3c, D3        
  Sebastian Ehlert       : rSCAN, r2SCAN, r2SCAN-3c, D4, dhf basis sets  
  Marvin Friede          : D4 for Fr, Ra, Ac-Lr                          
  Lars Goerigk           : TD-DFT with DH, B97 family of functionals     
  Stefan Grimme          : VdW corrections, initial TS optimization, DFT functionals, gCP, sTDA/sTD-DF 
  Waldemar Hujo          : DFT-NL                                        
  H. Jonsson             : NEB                                           
  Holger Kruse           : gCP                                           
  Marcel Mueller         : wB97X-3c, vDZP basis set                      
  Hagen Neugebauer       : wr2SCAN                                       
  Tobias Risthaus        : range-separated hybrid DFT                    
  Lukas Wittmann         : regularized MP2, r2SCAN double-hybrids, wr2SCAN        
                                                                         
We gratefully acknowledge several colleagues who have allowed us to      
interface, adapt or use parts of their codes:                            
  Ed Valeev, F. Pavosevic, A. Kumar             : LibInt (2-el integral package), F12 methods 
  Garnet Chan, S. Sharma, J. Yang, R. Olivares  : DMRG                   
  Ulf Ekstrom                                   : XCFun DFT Library      
  Mihaly Kallay                                 : mrcc  (arbitrary order and MRCC methods)
  Frank Weinhold                                : gennbo (NPA and NBO analysis)           
  Simon Mueller                                 : openCOSMO-RS                            
  Christopher J. Cramer and Donald G. Truhlar   : smd solvation model                     
  S Lehtola, MJT Oliveira, MAL Marques          : LibXC Library                           
  Liviu Ungur et al                             : ANISO software                          


 Your calculation uses the libint2 library for the computation of 2-el integrals
 For citations please refer to: http://libint.valeyev.net

 Your ORCA version has been built with support for libXC version: 6.2.2
 For citations please refer to: https://libxc.gitlab.io

 This ORCA versions uses:
   CBLAS   interface :  Fast vector & matrix operations
   LAPACKE interface :  Fast linear algebra routines
   SCALAPACK package :  Parallel linear algebra routines
   Shared memory     :  Shared parallel matrices
   BLAS/LAPACK       :  OpenBLAS 0.3.27  USE64BITINT DYNAMIC_ARCH NO_AFFINITY Zen SINGLE_THREADED
        Core in use  :  Zen
   Copyright (c) 2011-2014, The OpenBLAS Project


NOTE: MaxCore=6000 MB was set to SCF,MP2,MDCI,CIPSI,MRCI and CIS
      => If you want to overwrite this, your respective input block should be placed after the MaxCore statement
Your calculation utilizes the atom-pairwise dispersion correction
with the Becke-Johnson damping scheme (D3BJ)


Your calculation employs the composite approach B97-3c by Grimme and coworkers.
For the correct reference, please check the publication list of the Grimme group:
http://www.thch.uni-bonn.de/tc/index.php?section=publikationen&subsection=grimme#2017
   

XCFun DFT library Copyright 2009-2010 Ulf Ekstrom and contributors.
See http://admol.org/xcfun for more information.
This is free software; see the source code for copying conditions.
There is ABSOLUTELY NO WARRANTY; not even for MERCHANTABILITY or FITNESS FOR A PARTICULAR PURPOSE.
For details see the documentation.
Scientific users of this library should cite U. Ekstrom, L. Visscher, R. Bast, A. J. Thorvaldsen and K. Ruud;
J.Chem.Theor.Comp. 2010, DOI: 10.1021/ct100117s
XCFun Version 0.99 

================================================================================

----- Orbital basis set information -----
Your calculation utilizes the basis: def2-mTZVP
----- AuxJ basis set information -----
Your calculation utilizes the basis: def2-mTZVP/J
================================================================================
                                        WARNINGS
                       Please study these warnings very carefully!
================================================================================


WARNING: Geometry Optimization
  ===> : Switching off AutoStart
         For restart on a previous wavefunction, please use MOREAD

================================================================================
                                       INPUT FILE
================================================================================
NAME = m1_00_Vitamin_B9-QM3_00001-B97-3C-TZ.inp
|  1> %pal nprocs 16 end
|  2> %MaxCore 6000
|  3> # put your comments here
|  4> ! B97-3C  OPT  FREQ DEFGRID3 NOTRAH
|  5> %scf MaxIter 800 end
|  6> %output
|  7> Print [P_Hirshfeld] 1
|  8> end
|  9> %geom
| 10> MaxIter 3000
| 11>  TolE 1e-6 #TolE 5e-6 Energy change (a.u.)
| 12>  TolRMSG 3e-5 #TolRMSG 1e-4 RMS gradient (a.u.)
| 13>  TolMaxG 1e-4 #TolMaxG 3e-3 Max. element of gradient (a.u.)
| 14>  TolRMSD 2e-3 #TolRMSD 2e-3 RMS displacement (a.u.)
| 15>  TolMaxD 4e-3 #TolMaxD 4e-3 Max. displacement (a.u.)
| 16> end
| 17> * xyz 0 1
| 18>  O      -3.39472188      -0.49278423       0.16944501
| 19>  O      -1.77523117      -2.05514987       1.32246227
| 20>  O      -3.62964567       1.69594823       0.39611591
| 21>  O      -0.06262427       2.50372900       1.72112628
| 22>  O      -1.38763728       3.48016853       0.23654230
| 23>  O       1.24205032       1.75089620      -0.27188426
| 24>  N      -1.18684247       0.04930781       1.85813788
| 25>  N       4.30141378      -1.87485004      -0.55138949
| 26>  N       2.38001820      -0.31797321      -1.79021114
| 27>  N       0.72218474      -1.61964315      -3.56081991
| 28>  N      -0.72314160       1.42533924      -1.32771581
| 29>  N      -1.06924568      -0.24554311      -2.94198397
| 30>  N      -2.81378256       1.15177639      -2.28144158
| 31>  C      -2.52923690       0.47160421       2.14697079
| 32>  C      -2.51828751       1.69196403       3.04247422
| 33>  C      -2.26525430       3.04680385       2.40679894
| 34>  C      -0.89275032      -1.21646701       1.48135945
| 35>  C       0.53460844      -1.49220005       1.18370567
| 36>  C      -3.26162176       0.62967235       0.82106985
| 37>  C       3.10380605      -1.86392775       0.17850742
| 38>  C       4.13323680      -1.96001568      -2.00339154
| 39>  C       0.82121418      -2.58252905       0.36938383
| 40>  C       1.57736403      -0.66903413       1.59651609
| 41>  C       2.09419267      -2.78252823      -0.10959881
| 42>  C       2.84969364      -0.85770443       1.10948724
| 43>  C      -1.20133085       3.05335671       1.35189005
| 44>  C       2.81798500      -1.36124294      -2.44370392
| 45>  C       1.11816613       0.07269358      -1.95462345
| 46>  C       1.96032863      -1.99891822      -3.37013246
| 47>  C       0.24183162      -0.58989338      -2.82722004
| 48>  C       0.60007343       1.15058137      -1.11753845
| 49>  C      -1.52453852       0.73258478      -2.20640892
| 50>  H      -3.02901603      -0.34719959       2.67760041
| 51>  H      -3.48350790       1.75312446       3.55549942
| 52>  H      -1.76449215       1.49734590       3.80806223
| 53>  H      -1.96331777       3.74894600       3.19206077
| 54>  H      -3.16364390       3.42781919       1.93012983
| 55>  H      -0.47532544       0.75842578       1.84737411
| 56>  H       4.16415712      -3.00568932      -2.33093780
| 57>  H       4.98535527      -1.45310289      -2.47033374
| 58>  H       0.01599635      -3.24678709       0.08093342
| 59>  H       1.40031387       0.15807718       2.26995695
| 60>  H       4.86118651      -1.07042902      -0.30095091
| 61>  H       2.30342868      -3.60539764      -0.77614569
| 62>  H       3.63192659      -0.15583297       1.36509245
| 63>  H       2.32014690      -2.85009268      -3.94781882
| 64>  H      -2.88820577      -1.22523733       0.60790766
| 65>  H      -1.09063929       2.24578333      -0.84403898
| 66>  H       0.53646878       2.37023130       0.92319833
| 67>  H      -3.40972943       0.50313287      -2.77418121
| 68>  H      -3.21337731       1.57086073      -1.44733789
| 69> *
| 70> 
| 71> 
| 72> 
| 73> 
| 74>                          ****END OF INPUT****
================================================================================

                       *****************************
                       * Geometry Optimization Run *
                       *****************************

Geometry optimization settings:
Update method            Update   .... BFGS
Choice of coordinates    CoordSys .... (2022) Redundant Internals
Initial Hessian          InHess   .... Almloef's Model
Max. no of cycles        MaxIter  .... 3000

Convergence Tolerances:
Energy Change            TolE     ....  1.0000e-06 Eh
Max. Gradient            TolMAXG  ....  1.0000e-04 Eh/bohr
RMS Gradient             TolRMSG  ....  3.0000e-05 Eh/bohr
Max. Displacement        TolMAXD  ....  4.0000e-03 bohr
RMS Displacement         TolRMSD  ....  2.0000e-03 bohr
Strict Convergence                .... False

------------------------------------------------------------------------------
                        ORCA OPTIMIZATION COORDINATE SETUP
------------------------------------------------------------------------------

The optimization will be done in redundant internal coordinates (2022)
Making redundant internal coordinates   ...  (2022 redundants) done
Evaluating the initial hessian          ...  (Almloef) done
Evaluating the coordinates              ...  done
Calculating the B-matrix                .... done
Calculating the G-matrix                .... done
Diagonalizing the G-matrix              .... done
Small eigenvalue found = 2.931e-03
Small eigenvalue found = 5.756e-03
Small eigenvalue found = 9.421e-03
Small eigenvalue found = 1.038e-02
Small eigenvalue found = 2.812e-02
The first mode is                       ....  113
The number of degrees of freedom        ....  147

    -----------------------------------------------------------------
                    Redundant Internal Coordinates


    -----------------------------------------------------------------
         Definition                    Initial Value    Approx d2E/dq
    -----------------------------------------------------------------
      1. B(C  13,N   6)                  1.4366         0.471573   
      2. B(C  14,C  13)                  1.5137         0.396610   
      3. B(C  15,C  14)                  1.5178         0.390707   
      4. B(C  16,O   1)                  1.2278         1.015569   
      5. B(C  16,N   6)                  1.3530         0.641046   
      6. B(C  17,C  16)                  1.4839         0.442503   
      7. B(C  18,O   0)                  1.3047         0.765540   
      8. B(C  18,O   2)                  1.2054         1.102566   
      9. B(C  18,C  13)                  1.5230         0.383372   
     10. B(C  19,N   7)                  1.4025         0.534393   
     11. B(C  20,N   7)                  1.4642         0.426102   
     12. B(C  21,C  17)                  1.3907         0.623164   
     13. B(C  22,C  17)                  1.3912         0.622117   
     14. B(C  23,C  19)                  1.3950         0.613323   
     15. B(C  23,C  21)                  1.3747         0.660833   
     16. B(C  24,C  22)                  1.3754         0.659318   
     17. B(C  24,C  19)                  1.3942         0.615240   
     18. B(C  25,C  15)                  1.4983         0.419762   
     19. B(C  25,O   4)                  1.2087         1.089378   
     20. B(C  25,O   3)                  1.3172         0.731114   
     21. B(C  26,C  20)                  1.5107         0.400986   
     22. B(C  26,N   8)                  1.3066         0.760131   
     23. B(C  27,N   8)                  1.3311         0.694688   
     24. B(C  28,C  26)                  1.4144         0.571268   
     25. B(C  28,N   9)                  1.3089         0.753824   
     26. B(C  29,N  11)                  1.3604         0.623893   
     27. B(C  29,C  27)                  1.4030         0.595660   
     28. B(C  29,N   9)                  1.3525         0.642219   
     29. B(C  30,C  27)                  1.4598         0.483504   
     30. B(C  30,N  10)                  1.3677         0.607402   
     31. B(C  30,O   5)                  1.2197         1.046151   
     32. B(C  31,N  12)                  1.3578         0.629968   
     33. B(C  31,N  11)                  1.3058         0.762468   
     34. B(C  31,N  10)                  1.3763         0.588446   
     35. B(H  32,C  13)                  1.0963         0.351913   
     36. B(H  33,C  14)                  1.0948         0.353807   
     37. B(H  34,C  14)                  1.0919         0.357618   
     38. B(H  35,C  15)                  1.0958         0.352492   
     39. B(H  36,C  15)                  1.0860         0.365372   
     40. B(H  37,O   3)                  1.7979         0.023944   
     41. B(H  37,N   6)                  1.0046         0.441378   
     42. B(H  38,C  20)                  1.0962         0.351978   
     43. B(H  39,C  20)                  1.0959         0.352317   
     44. B(H  40,C  21)                  1.0830         0.369525   
     45. B(H  41,C  22)                  1.0812         0.371938   
     46. B(H  42,N   7)                  1.0115         0.430310   
     47. B(H  43,C  23)                  1.0794         0.374352   
     48. B(H  44,C  24)                  1.0816         0.371393   
     49. B(H  45,C  28)                  1.0898         0.360350   
     50. B(H  46,N   6)                  2.4662         0.002055   
     51. B(H  46,O   1)                  1.5614         0.057073   
     52. B(H  46,O   0)                  0.9926         0.461235   
     53. B(H  47,O   4)                  1.6672         0.038696   
     54. B(H  47,N  10)                  1.0208         0.415806   
     55. B(H  48,O   4)                  2.3250         0.003453   
     56. B(H  48,O   5)                  1.5198         0.066515   
     57. B(H  48,O   3)                  1.0067         0.438003   
     58. B(H  49,N  12)                  1.0093         0.433825   
     59. B(H  50,O   2)                  1.8940         0.016820   
     60. B(H  50,N  12)                  1.0154         0.424209   
     61. A(C  18,O   0,H  46)          111.2326         0.375968   
     62. A(C  25,O   3,H  48)          110.3411         0.369692   
     63. A(C  13,N   6,H  37)          117.1601         0.343614   
     64. A(C  13,N   6,C  16)          122.2831         0.410446   
     65. A(C  16,N   6,H  37)          120.2271         0.361937   
     66. A(C  19,N   7,H  42)          109.7246         0.349422   
     67. A(C  20,N   7,H  42)          110.8148         0.336411   
     68. A(C  19,N   7,C  20)          114.7370         0.390477   
     69. A(C  26,N   8,C  27)          119.3603         0.453700   
     70. A(C  28,N   9,C  29)          118.5259         0.446600   
     71. A(C  31,N  10,H  47)          119.8285         0.353107   
     72. A(C  30,N  10,H  47)          115.9083         0.355009   
     73. A(C  30,N  10,C  31)          124.0792         0.422867   
     74. A(C  29,N  11,C  31)          118.5625         0.445183   
     75. A(C  31,N  12,H  50)          117.1104         0.358431   
     76. A(H  49,N  12,H  50)          115.7163         0.302422   
     77. A(C  31,N  12,H  49)          112.9063         0.359802   
     78. A(C  14,C  13,H  32)          108.6087         0.326289   
     79. A(C  18,C  13,H  32)          106.2417         0.324473   
     80. A(N   6,C  13,C  14)          110.4368         0.379736   
     81. A(C  14,C  13,C  18)          115.7758         0.368726   
     82. A(N   6,C  13,C  18)          107.7483         0.377511   
     83. A(N   6,C  13,H  32)          107.6837         0.333741   
     84. A(C  15,C  14,H  34)          109.7350         0.326347   
     85. A(H  33,C  14,H  34)          106.8605         0.289721   
     86. A(C  13,C  14,H  33)          108.4141         0.326577   
     87. A(C  13,C  14,C  15)          118.2347         0.369929   
     88. A(C  13,C  14,H  34)          106.0275         0.327154   
     89. A(C  15,C  14,H  33)          107.0598         0.325772   
     90. A(H  35,C  15,H  36)          108.5211         0.290528   
     91. A(C  14,C  15,H  36)          111.0435         0.327503   
     92. A(C  14,C  15,C  25)          114.6559         0.373560   
     93. A(C  25,C  15,H  36)          106.0720         0.331406   
     94. A(C  25,C  15,H  35)          107.8236         0.329445   
     95. A(C  14,C  15,H  35)          108.5280         0.325573   
     96. A(N   6,C  16,C  17)          116.0255         0.408479   
     97. A(O   1,C  16,C  17)          122.5808         0.443543   
     98. A(O   1,C  16,N   6)          121.2559         0.471397   
     99. A(C  21,C  17,C  22)          118.8935         0.434730   
    100. A(C  16,C  17,C  22)          123.4713         0.408952   
    101. A(C  16,C  17,C  21)          117.4753         0.409073   
    102. A(O   0,C  18,O   2)          123.6284         0.494546   
    103. A(O   2,C  18,C  13)          123.0633         0.438662   
    104. A(O   0,C  18,C  13)          113.2403         0.410950   
    105. A(C  23,C  19,C  24)          118.7660         0.432621   
    106. A(N   7,C  19,C  24)          120.5811         0.419332   
    107. A(N   7,C  19,C  23)          120.3554         0.419099   
    108. A(N   7,C  20,H  38)          110.3991         0.328198   
    109. A(N   7,C  20,C  26)          111.4677         0.373847   
    110. A(H  38,C  20,H  39)          106.9761         0.288809   
    111. A(C  26,C  20,H  39)          111.6793         0.326941   
    112. A(N   7,C  20,H  39)          107.8368         0.328250   
    113. A(C  26,C  20,H  38)          108.3938         0.326889   
    114. A(C  17,C  21,H  40)          118.9218         0.354763   
    115. A(C  23,C  21,H  40)          120.4282         0.358317   
    116. A(C  17,C  21,C  23)          120.5908         0.439487   
    117. A(C  17,C  22,C  24)          120.4746         0.439172   
    118. A(C  24,C  22,H  41)          118.4891         0.358574   
    119. A(C  17,C  22,H  41)          120.9801         0.355053   
    120. A(C  21,C  23,H  43)          120.3673         0.359109   
    121. A(C  19,C  23,H  43)          119.2885         0.354586   
    122. A(C  19,C  23,C  21)          120.1585         0.438227   
    123. A(C  19,C  24,C  22)          120.2699         0.438292   
    124. A(C  22,C  24,H  44)          119.7583         0.358484   
    125. A(C  19,C  24,H  44)          119.6256         0.354297   
    126. A(O   4,C  25,C  15)          122.8070         0.444942   
    127. A(O   3,C  25,C  15)          114.4989         0.414221   
    128. A(O   3,C  25,O   4)          122.6339         0.489253   
    129. A(C  20,C  26,C  28)          122.6928         0.395915   
    130. A(N   8,C  26,C  28)          118.9679         0.440801   
    131. A(N   8,C  26,C  20)          117.5493         0.413718   
    132. A(C  29,C  27,C  30)          118.9259         0.412238   
    133. A(N   8,C  27,C  30)          118.8368         0.420934   
    134. A(N   8,C  27,C  29)          122.0272         0.436983   
    135. A(C  26,C  28,H  45)          119.9422         0.348105   
    136. A(N   9,C  28,H  45)          117.4781         0.362618   
    137. A(N   9,C  28,C  26)          122.5739         0.440138   
    138. A(N  11,C  29,C  27)          122.3370         0.428619   
    139. A(N   9,C  29,C  27)          118.3640         0.430852   
    140. A(N   9,C  29,N  11)          119.2909         0.431611   
    141. A(N  10,C  30,C  27)          113.8025         0.410998   
    142. A(O   5,C  30,C  27)          125.0436         0.453163   
    143. A(O   5,C  30,N  10)          121.1246         0.469305   
    144. A(N  11,C  31,N  12)          122.0875         0.445965   
    145. A(N  10,C  31,N  12)          115.6439         0.425635   
    146. A(N  10,C  31,N  11)          122.2527         0.440498   
    147. D(C  18,C  13,N   6,H  37)     98.0631         0.020388   
    148. D(H  32,C  13,N   6,H  37)   -147.7145         0.020388   
    149. D(H  32,C  13,N   6,C  16)     38.8715         0.020388   
    150. D(C  18,C  13,N   6,C  16)    -75.3509         0.020388   
    151. D(C  14,C  13,N   6,H  37)    -29.2750         0.020388   
    152. D(C  14,C  13,N   6,C  16)    157.3110         0.020388   
    153. D(H  33,C  14,C  13,N   6)   -157.9714         0.012488   
    154. D(H  33,C  14,C  13,H  32)    -40.0984         0.012488   
    155. D(C  15,C  14,C  13,H  32)   -162.0860         0.012488   
    156. D(C  15,C  14,C  13,C  18)    -42.7242         0.012488   
    157. D(H  33,C  14,C  13,C  18)     79.2634         0.012488   
    158. D(C  15,C  14,C  13,N   6)     80.0410         0.012488   
    159. D(C  25,C  15,C  14,H  34)     80.8092         0.012134   
    160. D(C  25,C  15,C  14,H  33)   -163.5700         0.012134   
    161. D(C  25,C  15,C  14,C  13)    -40.8980         0.012134   
    162. D(H  35,C  15,C  14,C  13)   -161.4978         0.012134   
    163. D(H  35,C  15,C  14,H  33)     75.8302         0.012134   
    164. D(H  35,C  15,C  14,H  34)    -39.7906         0.012134   
    165. D(C  17,C  16,N   6,C  13)    178.4825         0.036392   
    166. D(O   1,C  16,N   6,H  37)   -170.5744         0.036392   
    167. D(O   1,C  16,N   6,C  13)      2.6428         0.036392   
    168. D(C  17,C  16,N   6,H  37)      5.2652         0.036392   
    169. D(C  22,C  17,C  16,N   6)     17.4048         0.013357   
    170. D(C  22,C  17,C  16,O   1)   -166.8160         0.013357   
    171. D(C  21,C  17,C  16,N   6)   -157.9396         0.013357   
    172. D(C  21,C  17,C  16,O   1)     17.8396         0.013357   
    173. D(O   0,C  18,C  13,H  32)    -50.7890         0.010956   
    174. D(O   0,C  18,C  13,C  14)   -171.4374         0.010956   
    175. D(O   0,C  18,C  13,N   6)     64.3897         0.010956   
    176. D(O   2,C  18,O   0,H  46)    169.7323         0.044711   
    177. D(C  13,C  18,O   0,H  46)     -7.3475         0.044711   
    178. D(O   2,C  18,C  13,C  14)     11.4639         0.010956   
    179. D(O   2,C  18,C  13,N   6)   -112.7091         0.010956   
    180. D(C  24,C  19,N   7,H  42)     -1.4715         0.022695   
    181. D(C  24,C  19,N   7,C  20)   -126.9802         0.022695   
    182. D(C  23,C  19,N   7,H  42)    172.1879         0.022695   
    183. D(C  23,C  19,N   7,C  20)     46.6793         0.022695   
    184. D(H  39,C  20,N   7,C  19)    150.6841         0.015480   
    185. D(H  38,C  20,N   7,H  42)    142.2905         0.015480   
    186. D(H  38,C  20,N   7,C  19)    -92.7711         0.015480   
    187. D(C  26,C  20,N   7,H  42)    -97.1789         0.015480   
    188. D(C  26,C  20,N   7,C  19)     27.7595         0.015480   
    189. D(H  40,C  21,C  17,C  22)    177.5261         0.026888   
    190. D(H  40,C  21,C  17,C  16)     -6.9091         0.026888   
    191. D(C  23,C  21,C  17,C  22)     -5.2596         0.026888   
    192. D(C  23,C  21,C  17,C  16)    170.3052         0.026888   
    193. D(H  41,C  22,C  17,C  21)   -176.8834         0.026792   
    194. D(H  41,C  22,C  17,C  16)      7.8345         0.026792   
    195. D(C  24,C  22,C  17,C  21)      5.8859         0.026792   
    196. D(C  24,C  22,C  17,C  16)   -169.3962         0.026792   
    197. D(H  43,C  23,C  21,H  40)     -0.1464         0.030478   
    198. D(H  43,C  23,C  21,C  17)   -177.3186         0.030478   
    199. D(C  19,C  23,C  21,H  40)    174.8649         0.030478   
    200. D(C  19,C  23,C  21,C  17)     -2.3074         0.030478   
    201. D(H  43,C  23,C  19,C  24)   -175.7401         0.025996   
    202. D(H  43,C  23,C  19,N   7)     10.4866         0.025996   
    203. D(C  21,C  23,C  19,C  24)      9.1950         0.025996   
    204. D(C  21,C  23,C  19,N   7)   -164.5783         0.025996   
    205. D(C  19,C  24,C  22,C  17)      1.0565         0.030329   
    206. D(H  44,C  24,C  19,C  23)    178.1970         0.026168   
    207. D(H  44,C  24,C  19,N   7)     -8.0442         0.026168   
    208. D(C  22,C  24,C  19,C  23)     -8.5742         0.026168   
    209. D(C  22,C  24,C  19,N   7)    165.1846         0.026168   
    210. D(H  44,C  24,C  22,H  41)     -3.0223         0.030329   
    211. D(H  44,C  24,C  22,C  17)    174.2763         0.030329   
    212. D(C  19,C  24,C  22,H  41)   -176.2421         0.030329   
    213. D(O   4,C  25,C  15,H  35)   -112.9216         0.013030   
    214. D(O   4,C  25,C  15,C  14)    126.0906         0.013030   
    215. D(O   3,C  25,C  15,H  36)   -174.0693         0.013030   
    216. D(O   3,C  25,C  15,H  35)     69.8349         0.013030   
    217. D(O   3,C  25,C  15,C  14)    -51.1529         0.013030   
    218. D(C  15,C  25,O   3,H  48)    168.4486         0.044636   
    219. D(O   4,C  25,O   3,H  48)     -8.8002         0.044636   
    220. D(C  28,C  26,C  20,H  38)    -12.6770         0.011930   
    221. D(C  28,C  26,C  20,N   7)   -134.3775         0.011930   
    222. D(N   8,C  26,C  20,H  39)    -85.3732         0.011930   
    223. D(N   8,C  26,C  20,H  38)    157.0262         0.011930   
    224. D(N   8,C  26,C  20,N   7)     35.3257         0.011930   
    225. D(C  28,C  26,N   8,C  27)      3.7679         0.044012   
    226. D(C  20,C  26,N   8,C  27)   -166.3314         0.044012   
    227. D(C  30,C  27,N   8,C  26)    173.6786         0.036087   
    228. D(C  29,C  27,N   8,C  26)     -0.9947         0.036087   
    229. D(H  45,C  28,C  26,C  20)    -12.4495         0.022391   
    230. D(H  45,C  28,C  26,N   8)    177.9868         0.022391   
    231. D(N   9,C  28,C  26,C  20)    166.6584         0.022391   
    232. D(N   9,C  28,C  26,N   8)     -2.9053         0.022391   
    233. D(H  45,C  28,N   9,C  29)    178.1317         0.043206   
    234. D(C  26,C  28,N   9,C  29)     -0.9970         0.043206   
    235. D(N  11,C  29,C  27,C  30)      1.3936         0.024441   
    236. D(N  11,C  29,C  27,N   8)    176.0623         0.024441   
    237. D(N   9,C  29,C  27,C  30)   -177.5616         0.024441   
    238. D(N   9,C  29,C  27,N   8)     -2.8929         0.024441   
    239. D(C  27,C  29,N  11,C  31)     -0.3639         0.028584   
    240. D(N   9,C  29,N  11,C  31)    178.5820         0.028584   
    241. D(C  27,C  29,N   9,C  28)      3.7282         0.030422   
    242. D(N  11,C  29,N   9,C  28)   -175.2597         0.030422   
    243. D(N  10,C  30,C  27,C  29)     -2.1919         0.015917   
    244. D(N  10,C  30,C  27,N   8)   -177.0328         0.015917   
    245. D(O   5,C  30,C  27,C  29)    175.8488         0.015917   
    246. D(O   5,C  30,C  27,N   8)      1.0080         0.015917   
    247. D(C  27,C  30,N  10,H  47)   -172.8315         0.029781   
    248. D(C  27,C  30,N  10,C  31)      2.2142         0.029781   
    249. D(O   5,C  30,N  10,H  47)      9.0423         0.029781   
    250. D(O   5,C  30,N  10,C  31)   -175.9120         0.029781   
    251. D(N  11,C  31,N  12,H  50)    152.1883         0.032217   
    252. D(N  11,C  31,N  12,H  49)     13.9836         0.032217   
    253. D(N  10,C  31,N  12,H  50)    -29.2317         0.032217   
    254. D(N  10,C  31,N  12,H  49)   -167.4364         0.032217   
    255. D(N  12,C  31,N  11,C  29)    178.7438         0.044314   
    256. D(N  10,C  31,N  11,C  29)      0.2575         0.044314   
    257. D(N  12,C  31,N  10,H  47)     -5.0439         0.027826   
    258. D(N  12,C  31,N  10,C  30)   -179.9065         0.027826   
    259. D(N  11,C  31,N  10,H  47)    173.5336         0.027826   
    260. D(N  11,C  31,N  10,C  30)     -1.3291         0.027826   
    -----------------------------------------------------------------

Number of atoms                         .... 51
Number of degrees of freedom            .... 260


         *************************************************************
         *                GEOMETRY OPTIMIZATION CYCLE   1            *
         *************************************************************
---------------------------------
CARTESIAN COORDINATES (ANGSTROEM)
---------------------------------
  O     -3.394722   -0.492784    0.169445
  O     -1.775231   -2.055150    1.322462
  O     -3.629646    1.695948    0.396116
  O     -0.062624    2.503729    1.721126
  O     -1.387637    3.480169    0.236542
  O      1.242050    1.750896   -0.271884
  N     -1.186842    0.049308    1.858138
  N      4.301414   -1.874850   -0.551389
  N      2.380018   -0.317973   -1.790211
  N      0.722185   -1.619643   -3.560820
  N     -0.723142    1.425339   -1.327716
  N     -1.069246   -0.245543   -2.941984
  N     -2.813783    1.151776   -2.281442
  C     -2.529237    0.471604    2.146971
  C     -2.518288    1.691964    3.042474
  C     -2.265254    3.046804    2.406799
  C     -0.892750   -1.216467    1.481359
  C      0.534608   -1.492200    1.183706
  C     -3.261622    0.629672    0.821070
  C      3.103806   -1.863928    0.178507
  C      4.133237   -1.960016   -2.003392
  C      0.821214   -2.582529    0.369384
  C      1.577364   -0.669034    1.596516
  C      2.094193   -2.782528   -0.109599
  C      2.849694   -0.857704    1.109487
  C     -1.201331    3.053357    1.351890
  C      2.817985   -1.361243   -2.443704
  C      1.118166    0.072694   -1.954623
  C      1.960329   -1.998918   -3.370132
  C      0.241832   -0.589893   -2.827220
  C      0.600073    1.150581   -1.117538
  C     -1.524539    0.732585   -2.206409
  H     -3.029016   -0.347200    2.677600
  H     -3.483508    1.753124    3.555499
  H     -1.764492    1.497346    3.808062
  H     -1.963318    3.748946    3.192061
  H     -3.163644    3.427819    1.930130
  H     -0.475325    0.758426    1.847374
  H      4.164157   -3.005689   -2.330938
  H      4.985355   -1.453103   -2.470334
  H      0.015996   -3.246787    0.080933
  H      1.400314    0.158077    2.269957
  H      4.861187   -1.070429   -0.300951
  H      2.303429   -3.605398   -0.776146
  H      3.631927   -0.155833    1.365092
  H      2.320147   -2.850093   -3.947819
  H     -2.888206   -1.225237    0.607908
  H     -1.090639    2.245783   -0.844039
  H      0.536469    2.370231    0.923198
  H     -3.409729    0.503133   -2.774181
  H     -3.213377    1.570861   -1.447338

----------------------------
CARTESIAN COORDINATES (A.U.)
----------------------------
  NO LB      ZA    FRAG     MASS         X           Y           Z
   0 O     8.0000    0    15.999   -6.415095   -0.931227    0.320205
   1 O     8.0000    0    15.999   -3.354701   -3.883670    2.499092
   2 O     8.0000    0    15.999   -6.859036    3.204878    0.748551
   3 O     8.0000    0    15.999   -0.118343    4.731362    3.252457
   4 O     8.0000    0    15.999   -2.622254    6.576565    0.447000
   5 O     8.0000    0    15.999    2.347135    3.308714   -0.513787
   6 N     7.0000    0    14.007   -2.242807    0.093178    3.511372
   7 N     7.0000    0    14.007    8.128494   -3.542953   -1.041975
   8 N     7.0000    0    14.007    4.497583   -0.600882   -3.383009
   9 N     7.0000    0    14.007    1.364731   -3.060682   -6.728974
  10 N     7.0000    0    14.007   -1.366540    2.693501   -2.509019
  11 N     7.0000    0    14.007   -2.020582   -0.464009   -5.559544
  12 N     7.0000    0    14.007   -5.317278    2.176542   -4.311300
  13 C     6.0000    0    12.011   -4.779565    0.891203    4.057187
  14 C     6.0000    0    12.011   -4.758874    3.197349    5.749443
  15 C     6.0000    0    12.011   -4.280710    5.757625    4.548191
  16 C     6.0000    0    12.011   -1.687054   -2.298789    2.799364
  17 C     6.0000    0    12.011    1.010264   -2.819849    2.236880
  18 C     6.0000    0    12.011   -6.163572    1.189908    1.551597
  19 C     6.0000    0    12.011    5.865343   -3.522313    0.337330
  20 C     6.0000    0    12.011    7.810686   -3.703893   -3.785861
  21 C     6.0000    0    12.011    1.551870   -4.880273    0.698034
  22 C     6.0000    0    12.011    2.980786   -1.264291    3.016978
  23 C     6.0000    0    12.011    3.957451   -5.258216   -0.207112
  24 C     6.0000    0    12.011    5.385141   -1.620826    2.096627
  25 C     6.0000    0    12.011   -2.270186    5.770008    2.554702
  26 C     6.0000    0    12.011    5.325220   -2.572376   -4.617931
  27 C     6.0000    0    12.011    2.113028    0.137371   -3.693703
  28 C     6.0000    0    12.011    3.704484   -3.777408   -6.368627
  29 C     6.0000    0    12.011    0.456996   -1.114737   -5.342672
  30 C     6.0000    0    12.011    1.133974    2.174284   -2.111842
  31 C     6.0000    0    12.011   -2.880960    1.384385   -4.169509
  32 H     1.0000    0     1.008   -5.724011   -0.656112    5.059931
  33 H     1.0000    0     1.008   -6.582876    3.312925    6.718920
  34 H     1.0000    0     1.008   -3.334407    2.829574    7.196195
  35 H     1.0000    0     1.008   -3.710133    7.084481    6.032121
  36 H     1.0000    0     1.008   -5.978421    6.477640    3.647417
  37 H     1.0000    0     1.008   -0.898235    1.433217    3.491031
  38 H     1.0000    0     1.008    7.869117   -5.679930   -4.404834
  39 H     1.0000    0     1.008    9.420956   -2.745967   -4.668254
  40 H     1.0000    0     1.008    0.030229   -6.135538    0.152942
  41 H     1.0000    0     1.008    2.646210    0.298723    4.289597
  42 H     1.0000    0     1.008    9.186311   -2.022818   -0.568715
  43 H     1.0000    0     1.008    4.352849   -6.813214   -1.466703
  44 H     1.0000    0     1.008    6.863347   -0.294482    2.579651
  45 H     1.0000    0     1.008    4.384442   -5.385895   -7.460296
  46 H     1.0000    0     1.008   -5.457918   -2.315363    1.148779
  47 H     1.0000    0     1.008   -2.061010    4.243915   -1.595003
  48 H     1.0000    0     1.008    1.013779    4.479088    1.744592
  49 H     1.0000    0     1.008   -6.443455    0.950783   -5.242443
  50 H     1.0000    0     1.008   -6.072403    2.968497   -2.735072

--------------------------------
INTERNAL COORDINATES (ANGSTROEM)
--------------------------------
 O      0   0   0     0.000000000000     0.00000000     0.00000000
 O      1   0   0     2.528474906873     0.00000000     0.00000000
 O      1   2   0     2.212943439285   129.22990610     0.00000000
 O      3   1   2     3.889961943393    98.21742619    23.18662677
 O      4   3   1     2.216547591659    46.77876504   137.11228468
 O      4   3   1     2.498204159611    98.31237443    62.25791368
 N      2   1   3     2.249864828906    72.42853318   351.75196161
 N      6   4   3     4.752248283797   127.80993080   245.57684289
 N      8   6   4     2.765918566976    31.75398544   146.36822226
 N      9   8   6     2.752782561372   116.12177126   215.37769149
 N      6   4   3     2.254494816719    87.81674439     6.02632579
 N     10   9   8     2.341010847960    90.76066144   145.25865052
 N     11   6   4     2.314132472632   176.00850128     3.95409149
 C      7   2   1     1.436586755141    94.49975549    45.61569673
 C     14   7   2     1.513712116802   110.43679175   158.54734071
 C     15  14   7     1.517794388191   118.23470027    80.04099238
 C      2   1   3     1.227766143892    95.58363328   330.97426190
 C     17   2   1     1.483906840689   122.58083073   225.57289956
 C      3   1   2     1.205392758284    29.40033722   337.74170548
 C      8   6   4     1.402545211607    54.10833539    38.04439809
 C      8   6   4     1.464188046681    91.64804772   157.77491021
 C     18  17   2     1.390712133241   117.47528148    17.83961308
 C     18  17   2     1.391169937566   123.47129546   193.18400430
 C     22  18  17     1.374735711846   120.59084769   170.30519445
 C     23  18  17     1.375360396157   120.47455110   190.60382783
 C      5   4   3     1.208668283269    30.02999453    54.73606926
 C      9   8   6     1.306629044889    62.72469075   186.55117678
 C      9   8   6     1.331135828926   151.52525493   288.46348065
 C     10   9   8     1.308897083294    58.23930054   328.90553895
 C     10   9   8     1.352513392900    60.33033033   146.46301193
 C      6   4   3     1.219689809532   115.24987427   350.50319378
 C     12  10   9     1.305793396190   148.80464547   359.66007278
 H     14   7   2     1.096260295413   107.68368088    40.10786984
 H     15  14   7     1.094799458944   108.41413286   202.02856464
 H     15  14   7     1.091883080892   106.02754117   316.46590849
 H     16  15  14     1.095812670400   108.52803363   198.50217610
 H     16  15  14     1.086043278664   111.04352385    79.29964750
 H      7   2   1     1.004599740246   147.45033519   238.62269416
 H     21   8   6     1.096209824814   110.39905178   216.46341962
 H     21   8   6     1.095947755015   107.83681387    99.91860168
 H     22  18  17     1.082967283201   118.92180247   353.09087106
 H     23  18  17     1.081194927015   120.98005327     7.83448863
 H      8   6   4     1.011512812090    74.63017023   268.92256965
 H     24  22  18     1.079434350497   120.36725213   182.68135643
 H     25  23  18     1.081594174267   119.75825624   174.27631025
 H     29  10   9     1.089811304452   117.47812181   180.54721483
 H      1   2   3     0.992620576471    10.19192760   211.95352176
 H     11   6   4     1.020845890843    88.61622160    35.91116655
 H      4   3   1     1.006689193274   104.36998313    71.07246328
 H     13  11  48     1.009298484529   144.15526382   195.63205865
 H     13  11  48     1.015399731107    88.17719251   329.84363989

---------------------------
INTERNAL COORDINATES (A.U.)
---------------------------
 O      0   0   0     0.000000000000     0.00000000     0.00000000
 O      1   0   0     4.778125110482     0.00000000     0.00000000
 O      1   2   0     4.181857050106   129.22990610     0.00000000
 O      3   1   2     7.350962744389    98.21742619    23.18662677
 O      4   3   1     4.188667911038    46.77876504   137.11228468
 O      4   3   1     4.720921688288    98.31237443    62.25791368
 N      2   1   3     4.251628364974    72.42853318   351.75196161
 N      6   4   3     8.980447776774   127.80993080   245.57684289
 N      8   6   4     5.226828600313    31.75398544   146.36822226
 N      9   8   6     5.202005147228   116.12177126   215.37769149
 N      6   4   3     4.260377773944    87.81674439     6.02632579
 N     10   9   8     4.423869379183    90.76066144   145.25865052
 N     11   6   4     4.373076610889   176.00850128     3.95409149
 C      7   2   1     2.714755534835    94.49975549    45.61569673
 C     14   7   2     2.860501346354   110.43679175   158.54734071
 C     15  14   7     2.868215721283   118.23470027    80.04099238
 C      2   1   3     2.320141768456    95.58363328   330.97426190
 C     17   2   1     2.804177537155   122.58083073   225.57289956
 C      3   1   2     2.277862196968    29.40033722   337.74170548
 C      8   6   4     2.650426340380    54.10833539    38.04439809
 C      8   6   4     2.766914416788    91.64804772   157.77491021
 C     18  17   2     2.628065062946   117.47528148    17.83961308
 C     18  17   2     2.628930187743   123.47129546   193.18400430
 C     22  18  17     2.597874001910   120.59084769   170.30519445
 C     23  18  17     2.599054484178   120.47455110   190.60382783
 C      5   4   3     2.284052042136    30.02999453    54.73606926
 C      9   8   6     2.469171053468    62.72469075   186.55117678
 C      9   8   6     2.515482163721   151.52525493   288.46348065
 C     10   9   8     2.473457024914    58.23930054   328.90553895
 C     10   9   8     2.555879905041    60.33033033   146.46301193
 C      6   4   3     2.304879708350   115.24987427   350.50319378
 C     12  10   9     2.467591906282   148.80464547   359.66007278
 H     14   7   2     2.071631729822   107.68368088    40.10786984
 H     15  14   7     2.068871148970   108.41413286   202.02856464
 H     15  14   7     2.063359993148   106.02754117   316.46590849
 H     16  15  14     2.070785841138   108.52803363   198.50217610
 H     16  15  14     2.052324366261   111.04352385    79.29964750
 H      7   2   1     1.898418383273   147.45033519   238.62269416
 H     21   8   6     2.071536354213   110.39905178   216.46341962
 H     21   8   6     2.071041114063   107.83681387    99.91860168
 H     22  18  17     2.046511577247   118.92180247   353.09087106
 H     23  18  17     2.043162309444   120.98005327     7.83448863
 H      8   6   4     1.911482195802    74.63017023   268.92256965
 H     24  22  18     2.039835301986   120.36725213   182.68135643
 H     25  23  18     2.043916777409   119.75825624   174.27631025
 H     29  10   9     2.059444903066   117.47812181   180.54721483
 H      1   2   3     1.875781044426    10.19192760   211.95352176
 H     11   6   4     1.929119158631    88.61622160    35.91116655
 H      4   3   1     1.902366877266   104.36998313    71.07246328
 H     13  11  48     1.907297723142   144.15526382   195.63205865
 H     13  11  48     1.918827408250    88.17719251   329.84363989

---------------------
BASIS SET INFORMATION
---------------------
There are 4 groups of distinct atoms

 Group   1 Type O   : 11s6p2d contracted to 5s3p2d pattern {62111/411/11}
 Group   2 Type N   : 11s6p1d contracted to 5s3p1d pattern {62111/411/1}
 Group   3 Type C   : 11s6p1d contracted to 5s3p1d pattern {62111/411/1}
 Group   4 Type H   : 5s contracted to 3s pattern {311}

Atom   0O    basis set group =>   1
Atom   1O    basis set group =>   1
Atom   2O    basis set group =>   1
Atom   3O    basis set group =>   1
Atom   4O    basis set group =>   1
Atom   5O    basis set group =>   1
Atom   6N    basis set group =>   2
Atom   7N    basis set group =>   2
Atom   8N    basis set group =>   2
Atom   9N    basis set group =>   2
Atom  10N    basis set group =>   2
Atom  11N    basis set group =>   2
Atom  12N    basis set group =>   2
Atom  13C    basis set group =>   3
Atom  14C    basis set group =>   3
Atom  15C    basis set group =>   3
Atom  16C    basis set group =>   3
Atom  17C    basis set group =>   3
Atom  18C    basis set group =>   3
Atom  19C    basis set group =>   3
Atom  20C    basis set group =>   3
Atom  21C    basis set group =>   3
Atom  22C    basis set group =>   3
Atom  23C    basis set group =>   3
Atom  24C    basis set group =>   3
Atom  25C    basis set group =>   3
Atom  26C    basis set group =>   3
Atom  27C    basis set group =>   3
Atom  28C    basis set group =>   3
Atom  29C    basis set group =>   3
Atom  30C    basis set group =>   3
Atom  31C    basis set group =>   3
Atom  32H    basis set group =>   4
Atom  33H    basis set group =>   4
Atom  34H    basis set group =>   4
Atom  35H    basis set group =>   4
Atom  36H    basis set group =>   4
Atom  37H    basis set group =>   4
Atom  38H    basis set group =>   4
Atom  39H    basis set group =>   4
Atom  40H    basis set group =>   4
Atom  41H    basis set group =>   4
Atom  42H    basis set group =>   4
Atom  43H    basis set group =>   4
Atom  44H    basis set group =>   4
Atom  45H    basis set group =>   4
Atom  46H    basis set group =>   4
Atom  47H    basis set group =>   4
Atom  48H    basis set group =>   4
Atom  49H    basis set group =>   4
Atom  50H    basis set group =>   4
---------------------------------
AUXILIARY/J BASIS SET INFORMATION
---------------------------------
There are 4 groups of distinct atoms

 Group   1 Type O   : 8s3p3d contracted to 6s3p3d pattern {311111/111/111}
 Group   2 Type N   : 8s3p3d contracted to 6s3p3d pattern {311111/111/111}
 Group   3 Type C   : 8s3p3d contracted to 6s3p3d pattern {311111/111/111}
 Group   4 Type H   : 5s2p contracted to 3s1p pattern {311/2}

Atom   0O    basis set group =>   1
Atom   1O    basis set group =>   1
Atom   2O    basis set group =>   1
Atom   3O    basis set group =>   1
Atom   4O    basis set group =>   1
Atom   5O    basis set group =>   1
Atom   6N    basis set group =>   2
Atom   7N    basis set group =>   2
Atom   8N    basis set group =>   2
Atom   9N    basis set group =>   2
Atom  10N    basis set group =>   2
Atom  11N    basis set group =>   2
Atom  12N    basis set group =>   2
Atom  13C    basis set group =>   3
Atom  14C    basis set group =>   3
Atom  15C    basis set group =>   3
Atom  16C    basis set group =>   3
Atom  17C    basis set group =>   3
Atom  18C    basis set group =>   3
Atom  19C    basis set group =>   3
Atom  20C    basis set group =>   3
Atom  21C    basis set group =>   3
Atom  22C    basis set group =>   3
Atom  23C    basis set group =>   3
Atom  24C    basis set group =>   3
Atom  25C    basis set group =>   3
Atom  26C    basis set group =>   3
Atom  27C    basis set group =>   3
Atom  28C    basis set group =>   3
Atom  29C    basis set group =>   3
Atom  30C    basis set group =>   3
Atom  31C    basis set group =>   3
Atom  32H    basis set group =>   4
Atom  33H    basis set group =>   4
Atom  34H    basis set group =>   4
Atom  35H    basis set group =>   4
Atom  36H    basis set group =>   4
Atom  37H    basis set group =>   4
Atom  38H    basis set group =>   4
Atom  39H    basis set group =>   4
Atom  40H    basis set group =>   4
Atom  41H    basis set group =>   4
Atom  42H    basis set group =>   4
Atom  43H    basis set group =>   4
Atom  44H    basis set group =>   4
Atom  45H    basis set group =>   4
Atom  46H    basis set group =>   4
Atom  47H    basis set group =>   4
Atom  48H    basis set group =>   4
Atom  49H    basis set group =>   4
Atom  50H    basis set group =>   4


           ************************************************************
           *        Program running with 16 parallel MPI-processes    *
           *              working on a common directory               *
           ************************************************************
------------------------------------------------------------------------------
                             ORCA STARTUP CALCULATIONS
                           -- RI-GTO INTEGRALS CHOSEN --
------------------------------------------------------------------------------
------------------------------------------------------------------------------
                   ___                                                        
                  /   \      - P O W E R E D   B Y -                         
                 /     \                                                     
                 |  |  |   _    _      __       _____    __    __             
                 |  |  |  | |  | |    /  \     |  _  \  |  |  /  |          
                  \  \/   | |  | |   /    \    | | | |  |  | /  /          
                 / \  \   | |__| |  /  /\  \   | |_| |  |  |/  /          
                |  |  |   |  __  | /  /__\  \  |    /   |      \           
                |  |  |   | |  | | |   __   |  |    \   |  |\   \          
                \     /   | |  | | |  |  |  |  | |\  \  |  | \   \       
                 \___/    |_|  |_| |__|  |__|  |_| \__\ |__|  \__/        
                                                                              
                      - O R C A' S   B I G   F R I E N D -                    
                                      &                                       
                       - I N T E G R A L  F E E D E R -                       
                                                                              
 v1 FN, 2020, v2 2021, v3 2022-2024                                           
------------------------------------------------------------------------------


----------------------
SHARK INTEGRAL PACKAGE
----------------------

Number of atoms                             ...     51
Number of basis functions                   ...    695
Number of shells                            ...    351
Maximum angular momentum                    ...      2
Integral batch strategy                     ... SHARK/LIBINT Hybrid
RI-J (if used) integral strategy            ... SPLIT-RIJ (Revised 2003 algorithm where possible)
Printlevel                                  ...      1
Contraction scheme used                     ... SEGMENTED contraction
Prescreening option                         ... SCHWARTZ
   Thresh                                   ... 2.500e-11
   Tcut                                     ... 2.500e-12
   Tpresel                                  ... 2.500e-12 
Coulomb Range Separation                    ... NOT USED
Exchange Range Separation                   ... NOT USED
Multipole approximations                    ... NOT USED
Finite Nucleus Model                        ... NOT USED
CABS basis                                  ... NOT available
Auxiliary Coulomb fitting basis             ... AVAILABLE
   # of basis functions in Aux-J            ...   1074
   # of shells in Aux-J                     ...    460
   Maximum angular momentum in Aux-J        ...      2
Auxiliary J/K fitting basis                 ... NOT available
Auxiliary Correlation fitting basis         ... NOT available
Auxiliary 'external' fitting basis          ... NOT available

Checking pre-screening integrals            ... done (  0.0 sec) Dimension = 351
Check shell pair data                       ... done (  0.0 sec)
Shell pair information
Shell pair cut-off parameter TPreSel        ...   2.5e-12
Total number of shell pairs                 ...     61776
Shell pairs after pre-screening             ...     45156
Total number of primitive shell pairs       ...    230264
Primitive shell pairs kept                  ...    102002
          la=0 lb=0:  15805 shell pairs
          la=1 lb=0:  16228 shell pairs
          la=1 lb=1:   4064 shell pairs
          la=2 lb=0:   5574 shell pairs
          la=2 lb=1:   2948 shell pairs
          la=2 lb=2:    537 shell pairs

Calculating one electron integrals          ... done (  0.0 sec)
Calculating RI/J V-Matrix + Cholesky decomp.... done (  0.0 sec)
Calculating Nuclear repulsion               ... done (  0.0 sec) ENN=   3652.204985242038 Eh

Diagonalization of the overlap matrix:
Smallest eigenvalue                        ... 7.035e-06
Time for diagonalization                   ...    0.054 sec
Threshold for overlap eigenvalues          ... 1.000e-07
Number of eigenvalues below threshold      ... 0
Time for construction of square roots      ...    0.032 sec
Total time needed                          ...    0.092 sec

-------------------
DFT GRID GENERATION
-------------------

General Integration Accuracy     IntAcc      ... 4.959
Radial Grid Type                 RadialGrid  ... OptM3 with GC (2021)
Angular Grid (max. ang.)         AngularGrid ... 6 (Lebedev-590)
Angular grid pruning method      GridPruning ... 4 (adaptive)
Weight generation scheme         WeightScheme... mBecke (2022)
Basis function cutoff            BFCut       ... 1.0000e-11
Integration weight cutoff        WCut        ... 1.0000e-14
Partially contracted basis set               ... off
Rotationally invariant grid construction     ... off
Angular grids for H and He will be reduced by one unit
Diffuse basis detected: some atoms will have their outermost
                        angular grid increased by 1.

Total number of grid points                  ...   611769
Total number of batches                      ...     9583
Average number of points per batch           ...       63
Average number of grid points per atom       ...    11995
Initializing property integral containers    ... done (  0.0 sec)

SHARK setup successfully completed in   5.6 seconds

Maximum memory used throughout the entire STARTUP-calculation: 158.5 MB


           ************************************************************
           *        Program running with 16 parallel MPI-processes    *
           *              working on a common directory               *
           ************************************************************
-------------------------------------------------------------------------------
                                 ORCA GUESS
                   Start orbitals & Density for SCF / CASSCF
-------------------------------------------------------------------------------

------------
SCF SETTINGS
------------
Hamiltonian:
 Density Functional     Method          .... DFT(GTOs)
 Exchange Functional    Exchange        .... B973C
 Correlation Functional Correlation     .... B973C
 Gradients option       PostSCFGGA      .... off
 RI-approximation to the Coulomb term is turned on
   Number of AuxJ basis functions       .... 1074


General Settings:
 Integral files         IntName         .... m1_00_Vitamin_B9-QM3_00001-B97-3C-TZ
 Hartree-Fock type      HFTyp           .... RHF
 Total Charge           Charge          ....    0
 Multiplicity           Mult            ....    1
 Number of Electrons    NEL             ....  230
 Basis Dimension        Dim             ....  695
 Nuclear Repulsion      ENuc            ....   3652.2049852420 Eh

Convergence Acceleration:
 AO-DIIS                CNVDIIS         .... on
   Start iteration      DIISMaxIt       ....    12
   Startup error        DIISStart       ....  0.200000
   # of expansion vecs  DIISMaxEq       ....     5
   Bias factor          DIISBfac        ....   1.050
   Max. coefficient     DIISMaxC        ....  10.000
 MO-DIIS                CNVKDIIS        .... off
 Trust-Rad. Augm. Hess. CNVTRAH         .... off
 SOSCF                  CNVSOSCF        .... on
   Start iteration      SOSCFMaxIt      ....   150
   Startup grad/error   SOSCFStart      ....  0.003300
   Hessian update       SOSCFHessUp     .... L-BFGS
 Level Shifting         CNVShift        .... on
   Level shift para.    LevelShift      ....    0.2500
   Turn off err/grad.   ShiftErr        ....    0.0010
 Zerner damping         CNVZerner       .... off
 Static damping         CNVDamp         .... on
   Fraction old density DampFac         ....    0.7000
   Max. Damping (<1)    DampMax         ....    0.9800
   Min. Damping (>=0)   DampMin         ....    0.0000
   Turn off err/grad.   DampErr         ....    0.1000

SCF Procedure:
 Maximum # iterations   MaxIter         ....   800
 SCF integral mode      SCFMode         .... Direct
   Integral package                     .... SHARK and LIBINT hybrid scheme
 Reset frequency        DirectResetFreq ....    20
 Integral Threshold     Thresh          ....  2.500e-11 Eh
 Primitive CutOff       TCut            ....  2.500e-12 Eh

Convergence Tolerance:
 Convergence Check Mode ConvCheckMode   .... Total+1el-Energy
 Convergence forced     ConvForced      .... 0
 Energy Change          TolE            ....  1.000e-08 Eh
 1-El. energy change                    ....  1.000e-05 Eh
 Orbital Gradient       TolG            ....  1.000e-05
 Orbital Rotation angle TolX            ....  1.000e-05
 DIIS Error             TolErr          ....  5.000e-07

--------------------------------
INITIAL GUESS: MINIMAL BASIS EHT
--------------------------------
The minimal basis has 179 functions
EHT matrix was diagonalized
Basis set overlap was calculated now projecting the orbitals
Using GuessMode=FMatrix for the initial guess
C*T matrix was formed
Effective Fockian was calculated
Effective Fockian was diagonalized
Initial density was built
                      ------------------
                      INITIAL GUESS DONE
                      ------------------
             **** ENERGY FILE WAS UPDATED (m1_00_Vitamin_B9-QM3_00001-B97-3C-TZ.en.tmp) ****
Finished Guess after   0.5 sec
Maximum memory used throughout the entire GUESS-calculation: 78.0 MB


           ************************************************************
           *        Program running with 16 parallel MPI-processes    *
           *              working on a common directory               *
           ************************************************************

-------------------------------------------------------------------------------------------
                                      ORCA LEAN-SCF
                              memory conserving SCF solver
-------------------------------------------------------------------------------------------

----------------------------------------D-I-I-S--------------------------------------------
Iteration    Energy (Eh)           Delta-E    RMSDP     MaxDP     DIISErr   Damp  Time(sec)
-------------------------------------------------------------------------------------------
               ***  Starting incremental Fock matrix formation  ***
    1    -1563.3607449510036531     0.00e+00  6.33e-03  9.36e-01  4.75e-01  0.700   2.1
Warning: op=0 Small HOMO/LUMO gap (   0.041) - skipping pre-diagonalization
         Will do a full diagonalization
    2    -1565.5174273725224339    -2.16e+00  4.36e-03  5.47e-01  3.34e-01  0.700   2.2
    3    -1566.5907110308626216    -1.07e+00  2.44e-03  1.74e-01  2.35e-01  0.700   2.0
                               ***Turning on AO-DIIS***
    4    -1567.3400488259612757    -7.49e-01  2.02e-03  2.20e-01  1.67e-01  0.700   2.0
    5    -1567.8680989532640524    -5.28e-01  1.41e-03  1.34e-01  1.14e-01  0.700   2.0
    6    -1568.2406886340422716    -3.73e-01  9.32e-04  9.43e-02  7.95e-02  0.700   2.0
    7    -1568.5043420972588137    -2.64e-01  2.14e-03  2.05e-01  5.57e-02  0.000   2.0
    8    -1569.1143747191890725    -6.10e-01  4.63e-04  6.92e-02  2.15e-02  0.000   2.0
    9    -1569.1191078788588129    -4.73e-03  1.53e-04  1.03e-02  9.07e-03  0.000   1.9
   10    -1569.1193653365417049    -2.57e-04  6.45e-05  9.62e-03  6.49e-03  0.000   1.9
                              *** Initializing SOSCF ***
---------------------------------------S-O-S-C-F--------------------------------------
Iteration    Energy (Eh)           Delta-E    RMSDP     MaxDP     MaxGrad    Time(sec)
--------------------------------------------------------------------------------------
   11    -1569.1196631755337876    -2.98e-04  2.88e-05  4.07e-03  1.17e-03     2.0
               *** Restarting incremental Fock matrix formation ***
   12    -1569.1196792550827013    -1.61e-05  4.22e-05  3.84e-03  2.18e-04     2.1
   13    -1569.1196722212071109     7.03e-06  1.76e-05  2.10e-03  5.83e-04     1.8
   14    -1569.1196813960050349    -9.17e-06  1.03e-05  1.16e-03  5.03e-05     1.7
   15    -1569.1196808095564847     5.86e-07  6.38e-06  4.19e-04  8.67e-05     1.7
   16    -1569.1196815134198914    -7.04e-07  6.36e-06  5.52e-04  1.08e-05     1.7
   17    -1569.1196814856548372     2.78e-08  3.90e-06  3.83e-04  2.38e-05     1.7
   18    -1569.1196815309340309    -4.53e-08  5.20e-06  4.28e-04  2.71e-06     1.7
   19    -1569.1196815034272731     2.75e-08  3.28e-06  3.52e-04  6.81e-06     1.7
   20    -1569.1196814900176832     1.34e-08  8.16e-06  9.62e-04  1.48e-06     1.7
                  *** Gradient check signals convergence ***

               *****************************************************
               *                     SUCCESS                       *
               *           SCF CONVERGED AFTER  20 CYCLES          *
               *****************************************************

             **** ENERGY FILE WAS UPDATED (m1_00_Vitamin_B9-QM3_00001-B97-3C-TZ.en.tmp) ****

----------------
TOTAL SCF ENERGY
----------------

Total Energy       :      -1569.11968149001768 Eh          -42697.91725 eV

Components:
Nuclear Repulsion  :       3652.20498524203776 Eh           99381.55011 eV
Electronic Energy  :      -5221.32466673205545 Eh         -142079.46736 eV
One Electron Energy:      -9409.68259991316518 Eh         -256050.48090 eV
Two Electron Energy:       4188.35793318110973 Eh          113971.01354 eV

Virial components:
Potential Energy   :      -3133.43995950876433 Eh          -85265.23610 eV
Kinetic Energy     :       1564.32027801874642 Eh           42567.31885 eV
Virial Ratio       :          2.00306804401804

DFT components:
N(Alpha)           :      115.000047361044 electrons
N(Beta)            :      115.000047361044 electrons
N(Total)           :      230.000094722088 electrons
E(XC)              :     -209.331678019054 Eh       

---------------
SCF CONVERGENCE
---------------

  Last Energy change         ...   -1.3410e-08  Tolerance :   1.0000e-08
  Last MAX-Density change    ...    9.6189e-04  Tolerance :   1.0000e-07
  Last RMS-Density change    ...    8.1642e-06  Tolerance :   5.0000e-09
  Last DIIS Error            ...    1.1713e-03  Tolerance :   5.0000e-07
  Last Orbital Gradient      ...    1.4765e-06  Tolerance :   1.0000e-05
  Last Orbital Rotation      ...    5.7647e-06  Tolerance :   1.0000e-05


----------------
ORBITAL ENERGIES
----------------

  NO   OCC          E(Eh)            E(eV) 
   0   2.0000     -18.795366      -511.4479 
   1   2.0000     -18.786294      -511.2011 
   2   2.0000     -18.747539      -510.1465 
   3   2.0000     -18.747221      -510.1378 
   4   2.0000     -18.746931      -510.1299 
   5   2.0000     -18.738507      -509.9007 
   6   2.0000     -14.047436      -382.2502 
   7   2.0000     -14.031603      -381.8193 
   8   2.0000     -14.015683      -381.3861 
   9   2.0000     -14.012007      -381.2861 
  10   2.0000     -14.005509      -381.1093 
  11   2.0000     -13.999711      -380.9515 
  12   2.0000     -13.979997      -380.4151 
  13   2.0000     -10.032686      -273.0033 
  14   2.0000     -10.028838      -272.8986 
  15   2.0000     -10.017311      -272.5849 
  16   2.0000     -10.017117      -272.5796 
  17   2.0000     -10.007623      -272.3213 
  18   2.0000      -9.974621      -271.4232 
  19   2.0000      -9.963376      -271.1173 
  20   2.0000      -9.949128      -270.7295 
  21   2.0000      -9.947817      -270.6939 
  22   2.0000      -9.945141      -270.6211 
  23   2.0000      -9.944971      -270.6164 
  24   2.0000      -9.944231      -270.5963 
  25   2.0000      -9.924610      -270.0624 
  26   2.0000      -9.914999      -269.8008 
  27   2.0000      -9.911229      -269.6983 
  28   2.0000      -9.909577      -269.6533 
  29   2.0000      -9.906142      -269.5598 
  30   2.0000      -9.903271      -269.4817 
  31   2.0000      -9.899559      -269.3807 
  32   2.0000      -1.048402       -28.5285 
  33   2.0000      -1.041664       -28.3451 
  34   2.0000      -1.002670       -27.2840 
  35   2.0000      -0.991636       -26.9838 
  36   2.0000      -0.959497       -26.1092 
  37   2.0000      -0.956812       -26.0362 
  38   2.0000      -0.944054       -25.6890 
  39   2.0000      -0.922589       -25.1049 
  40   2.0000      -0.885696       -24.1010 
  41   2.0000      -0.883416       -24.0390 
  42   2.0000      -0.853534       -23.2258 
  43   2.0000      -0.845734       -23.0136 
  44   2.0000      -0.824287       -22.4300 
  45   2.0000      -0.797943       -21.7131 
  46   2.0000      -0.761867       -20.7315 
  47   2.0000      -0.735090       -20.0028 
  48   2.0000      -0.711744       -19.3675 
  49   2.0000      -0.700001       -19.0480 
  50   2.0000      -0.685546       -18.6547 
  51   2.0000      -0.662541       -18.0287 
  52   2.0000      -0.646688       -17.5973 
  53   2.0000      -0.622552       -16.9405 
  54   2.0000      -0.615256       -16.7420 
  55   2.0000      -0.596659       -16.2359 
  56   2.0000      -0.582915       -15.8619 
  57   2.0000      -0.574333       -15.6284 
  58   2.0000      -0.571207       -15.5433 
  59   2.0000      -0.568337       -15.4652 
  60   2.0000      -0.555971       -15.1287 
  61   2.0000      -0.549582       -14.9549 
  62   2.0000      -0.532622       -14.4934 
  63   2.0000      -0.519481       -14.1358 
  64   2.0000      -0.504718       -13.7341 
  65   2.0000      -0.501361       -13.6427 
  66   2.0000      -0.488426       -13.2908 
  67   2.0000      -0.481010       -13.0890 
  68   2.0000      -0.469396       -12.7729 
  69   2.0000      -0.466344       -12.6899 
  70   2.0000      -0.461620       -12.5613 
  71   2.0000      -0.456360       -12.4182 
  72   2.0000      -0.453603       -12.3432 
  73   2.0000      -0.442913       -12.0523 
  74   2.0000      -0.442124       -12.0308 
  75   2.0000      -0.428366       -11.6564 
  76   2.0000      -0.426209       -11.5977 
  77   2.0000      -0.422268       -11.4905 
  78   2.0000      -0.419436       -11.4134 
  79   2.0000      -0.418159       -11.3787 
  80   2.0000      -0.407664       -11.0931 
  81   2.0000      -0.406615       -11.0646 
  82   2.0000      -0.403063       -10.9679 
  83   2.0000      -0.395499       -10.7621 
  84   2.0000      -0.393031       -10.6949 
  85   2.0000      -0.391171       -10.6443 
  86   2.0000      -0.386267       -10.5109 
  87   2.0000      -0.382878       -10.4186 
  88   2.0000      -0.376636       -10.2488 
  89   2.0000      -0.371066       -10.0972 
  90   2.0000      -0.364927        -9.9302 
  91   2.0000      -0.353696        -9.6246 
  92   2.0000      -0.349806        -9.5187 
  93   2.0000      -0.346663        -9.4332 
  94   2.0000      -0.340749        -9.2723 
  95   2.0000      -0.336912        -9.1678 
  96   2.0000      -0.323413        -8.8005 
  97   2.0000      -0.317685        -8.6446 
  98   2.0000      -0.307449        -8.3661 
  99   2.0000      -0.305295        -8.3075 
 100   2.0000      -0.292654        -7.9635 
 101   2.0000      -0.283942        -7.7265 
 102   2.0000      -0.277534        -7.5521 
 103   2.0000      -0.270055        -7.3486 
 104   2.0000      -0.266092        -7.2407 
 105   2.0000      -0.265391        -7.2217 
 106   2.0000      -0.262156        -7.1336 
 107   2.0000      -0.247965        -6.7475 
 108   2.0000      -0.245923        -6.6919 
 109   2.0000      -0.245469        -6.6796 
 110   2.0000      -0.239075        -6.5056 
 111   2.0000      -0.234430        -6.3792 
 112   2.0000      -0.212967        -5.7951 
 113   2.0000      -0.208198        -5.6654 
 114   2.0000      -0.191807        -5.2193 
 115   0.0000      -0.105643        -2.8747 
 116   0.0000      -0.076373        -2.0782 
 117   0.0000      -0.070083        -1.9071 
 118   0.0000      -0.055856        -1.5199 
 119   0.0000      -0.044348        -1.2068 
 120   0.0000      -0.040889        -1.1126 
 121   0.0000      -0.023722        -0.6455 
 122   0.0000       0.003881         0.1056 
 123   0.0000       0.010268         0.2794 
 124   0.0000       0.014243         0.3876 
 125   0.0000       0.017001         0.4626 
*Only the first 10 virtual orbitals were printed.

                    ********************************
                    * MULLIKEN POPULATION ANALYSIS *
                    ********************************

-----------------------
MULLIKEN ATOMIC CHARGES
-----------------------
   0 O :   -0.464976
   1 O :   -0.555091
   2 O :   -0.466390
   3 O :   -0.541981
   4 O :   -0.444178
   5 O :   -0.498520
   6 N :   -0.399954
   7 N :   -0.300694
   8 N :    0.005192
   9 N :   -0.041653
  10 N :   -0.379697
  11 N :   -0.141981
  12 N :   -0.609897
  13 C :   -0.108722
  14 C :   -0.346805
  15 C :   -0.213107
  16 C :    0.294748
  17 C :   -0.088683
  18 C :    0.412887
  19 C :    0.102773
  20 C :   -0.529549
  21 C :   -0.148839
  22 C :    0.028333
  23 C :   -0.179837
  24 C :   -0.177746
  25 C :    0.358873
  26 C :    0.184474
  27 C :    0.036150
  28 C :   -0.155008
  29 C :   -0.132469
  30 C :    0.299116
  31 C :    0.349299
  32 H :    0.222817
  33 H :    0.200675
  34 H :    0.185303
  35 H :    0.191904
  36 H :    0.187315
  37 H :    0.339077
  38 H :    0.215759
  39 H :    0.205593
  40 H :    0.205535
  41 H :    0.181541
  42 H :    0.319838
  43 H :    0.170431
  44 H :    0.159077
  45 H :    0.166636
  46 H :    0.406127
  47 H :    0.384108
  48 H :    0.402927
  49 H :    0.345008
  50 H :    0.364259
Sum of atomic charges:    0.0000000

--------------------------------
MULLIKEN REDUCED ORBITAL CHARGES
--------------------------------
  0 O s       :     3.758150  s :     3.758150
      pz      :     1.690213  p :     4.676021
      px      :     1.692821
      py      :     1.292987
      dz2     :     0.009790  d :     0.030805
      dxz     :     0.007463
      dyz     :     0.006371
      dx2y2   :     0.008432
      dxy     :    -0.001251

  1 O s       :     3.861949  s :     3.861949
      pz      :     1.535529  p :     4.644315
      px      :     1.505876
      py      :     1.602910
      dz2     :     0.008000  d :     0.048826
      dxz     :     0.008832
      dyz     :     0.010021
      dx2y2   :     0.006770
      dxy     :     0.015203

  2 O s       :     3.859486  s :     3.859486
      pz      :     1.665211  p :     4.559650
      px      :     1.475838
      py      :     1.418600
      dz2     :     0.011085  d :     0.047253
      dxz     :     0.004727
      dyz     :     0.010700
      dx2y2   :     0.008385
      dxy     :     0.012356

  3 O s       :     3.770069  s :     3.770069
      pz      :     1.681364  p :     4.738193
      px      :     1.372600
      py      :     1.684229
      dz2     :     0.006495  d :     0.033719
      dxz     :     0.007337
      dyz     :     0.011345
      dx2y2   :    -0.002814
      dxy     :     0.011357

  4 O s       :     3.853075  s :     3.853075
      pz      :     1.328243  p :     4.553544
      px      :     1.758555
      py      :     1.466746
      dz2     :     0.006627  d :     0.037559
      dxz     :     0.008862
      dyz     :     0.011757
      dx2y2   :     0.006148
      dxy     :     0.004165

  5 O s       :     3.848079  s :     3.848079
      pz      :     1.400053  p :     4.618931
      px      :     1.676684
      py      :     1.542194
      dz2     :     0.001791  d :     0.031510
      dxz     :     0.015540
      dyz     :     0.008506
      dx2y2   :     0.002011
      dxy     :     0.003662

  6 N s       :     3.333516  s :     3.333516
      pz      :     1.628394  p :     4.025461
      px      :     1.207484
      py      :     1.189583
      dz2     :     0.004837  d :     0.040977
      dxz     :     0.004444
      dyz     :     0.005116
      dx2y2   :     0.010692
      dxy     :     0.015888

  7 N s       :     3.392130  s :     3.392130
      pz      :     1.098270  p :     3.864789
      px      :     1.281780
      py      :     1.484739
      dz2     :     0.012596  d :     0.043775
      dxz     :     0.010313
      dyz     :     0.005309
      dx2y2   :     0.006877
      dxy     :     0.008680

  8 N s       :     3.449517  s :     3.449517
      pz      :     1.237691  p :     3.496793
      px      :     1.151909
      py      :     1.107192
      dz2     :     0.007934  d :     0.048498
      dxz     :     0.008756
      dyz     :     0.008705
      dx2y2   :     0.014726
      dxy     :     0.008377

  9 N s       :     3.487783  s :     3.487783
      pz      :     1.243616  p :     3.508216
      px      :     1.130431
[...]
114:   1455.88   0.007059   35.67  0.001513  ( 0.015798 -0.031384 -0.016688)
115:   1464.34   0.002018   10.20  0.000430  ( 0.005816 -0.019338  0.004724)
116:   1488.45   0.004085   20.65  0.000857  ( 0.024370 -0.005295 -0.015315)
117:   1490.38   0.016255   82.15  0.003404  (-0.053300  0.023723  0.000052)
118:   1496.30   0.012135   61.32  0.002531  (-0.013087  0.047091  0.011913)
119:   1497.03   0.027224  137.58  0.005675  ( 0.048899  0.045860  0.034363)
120:   1513.07   0.001155    5.84  0.000238  ( 0.008982  0.003815  0.011960)
121:   1515.89   0.004310   21.78  0.000887  (-0.003546  0.019846  0.021928)
122:   1531.68   0.017860   90.25  0.003639  ( 0.037756 -0.044552 -0.015110)
123:   1538.99   0.024291  122.76  0.004926  ( 0.035789 -0.036105 -0.048385)
124:   1551.76   0.032580  164.65  0.006552  ( 0.001237  0.080907  0.002107)
125:   1580.45   0.026670  134.78  0.005266  ( 0.053580 -0.044906 -0.019459)
126:   1598.46   0.038980  196.99  0.007610  ( 0.084383 -0.000286 -0.022123)
127:   1624.81   0.022838  115.42  0.004386  (-0.050163 -0.042642  0.007194)
128:   1633.66   0.056528  285.67  0.010798  (-0.086304  0.052119  0.025167)
129:   1645.29   0.022393  113.16  0.004247  ( 0.046235 -0.022248 -0.040182)
130:   1685.83   0.087119  440.26  0.016126  ( 0.107362  0.043713  0.051856)
131:   1691.85   0.051975  262.66  0.009587  (-0.052185  0.068053  0.047248)
132:   1736.68   0.042628  215.43  0.007660  (-0.003879 -0.004014 -0.087342)
133:   1767.44   0.082024  414.52  0.014482  (-0.053455  0.088782 -0.061178)
134:   2885.34   0.112688  569.48  0.012188  (-0.021271  0.015546 -0.107209)
135:   2888.35   0.277566  1402.71  0.029989  ( 0.128880 -0.092529 -0.069407)
136:   3002.29   0.001424    7.20  0.000148  ( 0.006264 -0.010019 -0.002908)
137:   3005.35   0.002809   14.19  0.000292  ( 0.009267  0.014107  0.002594)
138:   3012.54   0.010175   51.42  0.001054  (-0.021849  0.014690  0.018996)
139:   3023.58   0.006798   34.35  0.000702  ( 0.005542 -0.001495 -0.025858)
140:   3048.49   0.002160   10.92  0.000221  (-0.011739 -0.009019  0.001412)
141:   3060.15   0.003431   17.34  0.000350  (-0.018150  0.004174  0.001746)
142:   3079.21   0.008717   44.05  0.000883  (-0.016715  0.020411  0.013690)
143:   3126.78   0.002135   10.79  0.000213  ( 0.014074 -0.000437 -0.003850)
144:   3136.69   0.000618    3.12  0.000062  (-0.005873  0.004225 -0.003029)
145:   3141.02   0.002200   11.12  0.000219  (-0.005974 -0.009533 -0.009593)
146:   3150.45   0.001160    5.86  0.000115  (-0.005552  0.003655  0.008409)
147:   3165.61   0.000814    4.12  0.000080  ( 0.002060 -0.006984 -0.005220)
148:   3243.33   0.137724  696.00  0.013251  (-0.044754  0.070695  0.079061)
149:   3458.95   0.046792  236.47  0.004222  (-0.049263  0.010842  0.040953)
150:   3504.94   0.031739  160.40  0.002826  ( 0.002672  0.053057 -0.001932)
151:   3539.02   0.002876   14.53  0.000254  ( 0.014551  0.006427 -0.000759)
152:   3612.75   0.012987   65.63  0.001122  (-0.012577 -0.011727 -0.028742)

* The epsilon (eps) is given for a Dirac delta lineshape.
** The dipole moment derivative (T) already includes vibrational overlap.

The first frequency considered to be a vibration is 6
The total number of vibrations considered is 147


--------------------------
THERMOCHEMISTRY AT 298.15K
--------------------------

Temperature         ...   298.15 K
Pressure            ...     1.00 atm
Total Mass          ...   441.40 AMU
Quasi RRHO          ...     True
Cut-Off Frequency   ...     1.00 cm^-1

Throughout the following assumptions are being made:
  (1) The electronic state is orbitally nondegenerate
  (2) There are no thermally accessible electronically excited states
  (3) Hindered rotations indicated by low frequency modes are not
      treated as such but are treated as vibrations and this may
      cause some error
  (4) All equations used are the standard statistical mechanics
      equations for an ideal gas
  (5) All vibrations are strictly harmonic

freq.      36.48  E(vib)   ...       0.54 
freq.      42.42  E(vib)   ...       0.53 
freq.      53.54  E(vib)   ...       0.52 
freq.      63.72  E(vib)   ...       0.51 
freq.      73.15  E(vib)   ...       0.49 
freq.      79.21  E(vib)   ...       0.49 
freq.      93.74  E(vib)   ...       0.47 
freq.      96.11  E(vib)   ...       0.47 
freq.     109.73  E(vib)   ...       0.45 
freq.     131.17  E(vib)   ...       0.42 
freq.     134.76  E(vib)   ...       0.42 
freq.     139.21  E(vib)   ...       0.42 
freq.     149.69  E(vib)   ...       0.40 
freq.     171.35  E(vib)   ...       0.38 
freq.     176.22  E(vib)   ...       0.38 
freq.     183.59  E(vib)   ...       0.37 
freq.     186.47  E(vib)   ...       0.37 
freq.     222.84  E(vib)   ...       0.33 
freq.     235.17  E(vib)   ...       0.32 
freq.     254.52  E(vib)   ...       0.30 
freq.     257.77  E(vib)   ...       0.30 
freq.     267.91  E(vib)   ...       0.29 
freq.     278.66  E(vib)   ...       0.28 
freq.     312.35  E(vib)   ...       0.25 
freq.     330.40  E(vib)   ...       0.24 
freq.     351.96  E(vib)   ...       0.23 
freq.     363.87  E(vib)   ...       0.22 
freq.     370.65  E(vib)   ...       0.21 
freq.     383.62  E(vib)   ...       0.20 
freq.     400.12  E(vib)   ...       0.19 
freq.     415.41  E(vib)   ...       0.18 
freq.     431.19  E(vib)   ...       0.18 
freq.     440.69  E(vib)   ...       0.17 
freq.     457.26  E(vib)   ...       0.16 
freq.     476.46  E(vib)   ...       0.15 
freq.     484.81  E(vib)   ...       0.15 
freq.     492.01  E(vib)   ...       0.14 
freq.     520.35  E(vib)   ...       0.13 
freq.     546.88  E(vib)   ...       0.12 
freq.     557.18  E(vib)   ...       0.12 
freq.     561.02  E(vib)   ...       0.11 
freq.     584.35  E(vib)   ...       0.11 
freq.     595.01  E(vib)   ...       0.10 
freq.     599.27  E(vib)   ...       0.10 
freq.     625.26  E(vib)   ...       0.09 
freq.     645.48  E(vib)   ...       0.09 
freq.     649.69  E(vib)   ...       0.08 
freq.     655.91  E(vib)   ...       0.08 
freq.     659.11  E(vib)   ...       0.08 
freq.     670.49  E(vib)   ...       0.08 
freq.     694.16  E(vib)   ...       0.07 
freq.     703.17  E(vib)   ...       0.07 
freq.     714.09  E(vib)   ...       0.07 
freq.     717.55  E(vib)   ...       0.07 
freq.     725.63  E(vib)   ...       0.06 
freq.     745.77  E(vib)   ...       0.06 
freq.     759.06  E(vib)   ...       0.06 
freq.     771.52  E(vib)   ...       0.05 
freq.     790.92  E(vib)   ...       0.05 
freq.     798.71  E(vib)   ...       0.05 
freq.     804.10  E(vib)   ...       0.05 
freq.     814.31  E(vib)   ...       0.05 
freq.     835.82  E(vib)   ...       0.04 
freq.     843.41  E(vib)   ...       0.04 
freq.     874.49  E(vib)   ...       0.04 
freq.     875.12  E(vib)   ...       0.04 
freq.     891.79  E(vib)   ...       0.03 
freq.     917.20  E(vib)   ...       0.03 
freq.     919.08  E(vib)   ...       0.03 
freq.     926.31  E(vib)   ...       0.03 
freq.     945.41  E(vib)   ...       0.03 
freq.     949.64  E(vib)   ...       0.03 
freq.     969.11  E(vib)   ...       0.03 
freq.     999.04  E(vib)   ...       0.02 
freq.    1006.71  E(vib)   ...       0.02 
freq.    1014.45  E(vib)   ...       0.02 
freq.    1023.95  E(vib)   ...       0.02 
freq.    1026.57  E(vib)   ...       0.02 
freq.    1050.01  E(vib)   ...       0.02 
freq.    1065.27  E(vib)   ...       0.02 
freq.    1076.95  E(vib)   ...       0.02 
freq.    1118.08  E(vib)   ...       0.01 
freq.    1124.08  E(vib)   ...       0.01 
freq.    1145.34  E(vib)   ...       0.01 
freq.    1167.27  E(vib)   ...       0.01 
freq.    1169.28  E(vib)   ...       0.01 
freq.    1203.65  E(vib)   ...       0.01 
freq.    1207.12  E(vib)   ...       0.01 
freq.    1215.49  E(vib)   ...       0.01 
freq.    1230.93  E(vib)   ...       0.01 
freq.    1233.13  E(vib)   ...       0.01 
freq.    1247.74  E(vib)   ...       0.01 
freq.    1267.33  E(vib)   ...       0.01 
freq.    1286.41  E(vib)   ...       0.01 
freq.    1295.56  E(vib)   ...       0.01 
freq.    1306.40  E(vib)   ...       0.01 
freq.    1326.67  E(vib)   ...       0.01 
freq.    1330.81  E(vib)   ...       0.01 
freq.    1340.33  E(vib)   ...       0.01 
freq.    1346.14  E(vib)   ...       0.01 
freq.    1350.75  E(vib)   ...       0.01 
freq.    1363.42  E(vib)   ...       0.01 
freq.    1370.59  E(vib)   ...       0.01 
freq.    1381.51  E(vib)   ...       0.01 
freq.    1384.37  E(vib)   ...       0.00 
freq.    1398.51  E(vib)   ...       0.00 
freq.    1406.21  E(vib)   ...       0.00 
freq.    1448.56  E(vib)   ...       0.00 
freq.    1455.88  E(vib)   ...       0.00 
freq.    1464.34  E(vib)   ...       0.00 
freq.    1488.45  E(vib)   ...       0.00 
freq.    1490.38  E(vib)   ...       0.00 
freq.    1496.30  E(vib)   ...       0.00 
freq.    1497.03  E(vib)   ...       0.00 
freq.    1513.07  E(vib)   ...       0.00 
freq.    1515.89  E(vib)   ...       0.00 
freq.    1531.68  E(vib)   ...       0.00 
freq.    1538.99  E(vib)   ...       0.00 
freq.    1551.76  E(vib)   ...       0.00 
freq.    1580.45  E(vib)   ...       0.00 
freq.    1598.46  E(vib)   ...       0.00 
freq.    1624.81  E(vib)   ...       0.00 
freq.    1633.66  E(vib)   ...       0.00 
freq.    1645.29  E(vib)   ...       0.00 
freq.    1685.83  E(vib)   ...       0.00 
freq.    1691.85  E(vib)   ...       0.00 
freq.    1736.68  E(vib)   ...       0.00 
freq.    1767.44  E(vib)   ...       0.00 
freq.    2885.34  E(vib)   ...       0.00 
freq.    2888.35  E(vib)   ...       0.00 
freq.    3002.29  E(vib)   ...       0.00 
freq.    3005.35  E(vib)   ...       0.00 
freq.    3012.54  E(vib)   ...       0.00 
freq.    3023.58  E(vib)   ...       0.00 
freq.    3048.49  E(vib)   ...       0.00 
freq.    3060.15  E(vib)   ...       0.00 
freq.    3079.21  E(vib)   ...       0.00 
freq.    3126.78  E(vib)   ...       0.00 
freq.    3136.69  E(vib)   ...       0.00 
freq.    3141.02  E(vib)   ...       0.00 
freq.    3150.45  E(vib)   ...       0.00 
freq.    3165.61  E(vib)   ...       0.00 
freq.    3243.33  E(vib)   ...       0.00 
freq.    3458.95  E(vib)   ...       0.00 
freq.    3504.94  E(vib)   ...       0.00 
freq.    3539.02  E(vib)   ...       0.00 
freq.    3612.75  E(vib)   ...       0.00 

------------
INNER ENERGY
------------

The inner energy is: U= E(el) + E(ZPE) + E(vib) + E(rot) + E(trans)
    E(el)   - is the total energy from the electronic structure calculation
              = E(kin-el) + E(nuc-el) + E(el-el) + E(nuc-nuc)
    E(ZPE)  - the the zero temperature vibrational energy from the frequency calculation
    E(vib)  - the the finite temperature correction to E(ZPE) due to population
              of excited vibrational states
    E(rot)  - is the rotational thermal energy
    E(trans)- is the translational thermal energy

Summary of contributions to the inner energy U:
Electronic energy                ...  -1569.49416530 Eh
Zero point energy                ...      0.38848761 Eh     243.78 kcal/mol
Thermal vibrational correction   ...      0.02379013 Eh      14.93 kcal/mol
Thermal rotational correction    ...      0.00141627 Eh       0.89 kcal/mol
Thermal translational correction ...      0.00141627 Eh       0.89 kcal/mol
-----------------------------------------------------------------------
Total thermal energy                  -1569.07905502 Eh


Summary of corrections to the electronic energy:
(perhaps to be used in another calculation)
Total thermal correction                  0.02662267 Eh      16.71 kcal/mol
Non-thermal (ZPE) correction              0.38848761 Eh     243.78 kcal/mol
-----------------------------------------------------------------------
Total correction                          0.41511028 Eh     260.49 kcal/mol


--------
ENTHALPY
--------

The enthalpy is H = U + kB*T
                kB is Boltzmann's constant
Total thermal energy              ...  -1569.07905502 Eh 
Thermal Enthalpy correction       ...      0.00094421 Eh       0.59 kcal/mol
-----------------------------------------------------------------------
Total Enthalpy                    ...  -1569.07811082 Eh


Note: Only C1 symmetry has been detected, increase convergence thresholds 
      if your molecule has a higher symmetry. Symmetry factor of 1.0 is   
      used for the rotational entropy correction. 
 

Note: Rotational entropy computed according to Herzberg 
Infrared and Raman Spectra, Chapter V,1, Van Nostrand Reinhold, 1945 
Point Group:  C1, Symmetry Number:   1  
Rotational constants in cm-1:     0.007839     0.004149     0.003724 

Vibrational entropy computed according to the QRRHO of S. Grimme
Chem.Eur.J. 2012 18 9955 using a reference frequency of 100.0 cm-1


-------
ENTROPY
-------

The entropy contributions are T*S = T*(S(el)+S(vib)+S(rot)+S(trans))
     S(el)   - electronic entropy
     S(vib)  - vibrational entropy
     S(rot)  - rotational entropy
     S(trans)- translational entropy
The entropies will be listed as multiplied by the temperature to get
units of energy

Electronic entropy                ...      0.00000000 Eh      0.00 kcal/mol
Vibrational entropy               ...      0.04132970 Eh     25.93 kcal/mol
Rotational entropy                ...      0.01702953 Eh     10.69 kcal/mol
Translational entropy             ...      0.02097411 Eh     13.16 kcal/mol
-----------------------------------------------------------------------
Final entropy term                ...      0.07933335 Eh     49.78 kcal/mol

In case the symmetry of your molecule has not been determined correctly
or in case you have a reason to use a different symmetry number we print 
out the resulting rotational entropy values for sn=1,12:

 non-linear molecules -----------------------------------
|  sn= 1 | S(rot)=       0.01702953 Eh     10.69 kcal/mol|
|  sn= 2 | S(rot)=       0.01637508 Eh     10.28 kcal/mol|
|  sn= 3 | S(rot)=       0.01599225 Eh     10.04 kcal/mol|
|  sn= 4 | S(rot)=       0.01572062 Eh      9.86 kcal/mol|
|  sn= 5 | S(rot)=       0.01550993 Eh      9.73 kcal/mol|
|  sn= 6 | S(rot)=       0.01533779 Eh      9.62 kcal/mol|
|  sn= 7 | S(rot)=       0.01519224 Eh      9.53 kcal/mol|
|  sn= 8 | S(rot)=       0.01506617 Eh      9.45 kcal/mol|
|  sn= 9 | S(rot)=       0.01495496 Eh      9.38 kcal/mol|
|  sn=10 | S(rot)=       0.01485548 Eh      9.32 kcal/mol|
|  sn=11 | S(rot)=       0.01476549 Eh      9.27 kcal/mol|
|  sn=12 | S(rot)=       0.01468333 Eh      9.21 kcal/mol|
 linear molecules ---------------------------------------
|  Dinfh | S(rot)=       0.01060645 Eh      6.66 kcal/mol|
|  Cinfv | S(rot)=       0.01126091 Eh      7.07 kcal/mol|
 --------------------------------------------------------


-------------------
GIBBS FREE ENERGY
-------------------

The Gibbs free energy is G = H - T*S

Total enthalpy                    ...  -1569.07811082 Eh 
Total entropy correction          ...     -0.07933335 Eh    -49.78 kcal/mol
-----------------------------------------------------------------------
Final Gibbs free energy         ...  -1569.15744416 Eh

For completeness - the Gibbs free energy minus the electronic energy
G-E(el)                           ...      0.33672114 Eh    211.30 kcal/mol


Maximum memory used throughout the entire PROP-calculation: 201.8 MB

--------------------------------
SUGGESTED CITATIONS FOR THIS RUN
--------------------------------

Below you find a list of papers that are relevant to this ORCA run
We neither can nor want to force you to cite these papers, but we appreciate if you do
You receive ORCA, which is the product of decades of hard work by many enthusiastic individuals, for free
The only thing we kindly ask in return is that you cite our papers,
We deeply appreciate it, if you show your appreciation for ORCA by not just citing the generic ORCA reference.

Please note that relegating all ORCA citations to the supporting information does *not* help us.
SI sections are not indexed - citations you put there will not count into any citation statistics
But we need these citations in order to attract the funding resources that allow us to do what we are doing

Therefore, if you are a happy ORCA user, please consider citing a few of the papers listed below in the main body of your paper

In addition to the list printed below, the program has created the file m1_00_Vitamin_B9-QM3_00001-B97-3C-TZ.bibtex that contains the list in bibtex format
You can import this file easily into all common literature databanks and citation aid programs


List of essential papers. We consider these as the minimum necessary citations

  1. Neese,F.
     Software update: the ORCA program system, version 5.0
     WIRES Comput. Molec. Sci., 2022 12(1)e1606
     doi.org/10.1002/wcms.1606

List of papers to cite with high priority. The work reported in these papers was absolutely
necessary for this run to complete.
Our perspective: the developers of density functionals and basis sets usually get cited in chemistry papers
Good! But without the algorithms to do something with them, the functionals or basis sets would not do anything.
Hence, in our opinion, the algorithm design and method developments papers are equally worthy of getting cited

  1. Neese,F.
     An improvement of the resolution of the identity approximation for the formation of the Coulomb matrix
     J. Comp. Chem., 2003 24(14)1740-1747
     doi.org/10.1002/jcc.10318
  2. Bykov,D.; Petrenko,T.; Izsak,R.; Kossmann,S.; Becker,U.; Valeev,E.; Neese,F.
     Efficient implementation of the analytic second derivatives of Hartree-Fock and hybrid DFT energies: a detailed analysis of different approximations
     Molec. Phys., 2015 113 1961-1977
     doi.org/10.1080/00268976.2015.1025114
  3. Neese,F.
     The SHARK Integral Generation and Digestion System
     J. Comp. Chem., 2022  1-16
     doi.org/10.1002/jcc.26942
  4. Grimme,S.; Antony,J.; Ehrlich,S.; Krieg,H.
     A consistent and accurate ab initio parametrization of density functional dispersion correction (DFT-D) for the 94 elements H-Pu
     J. Chem. Phys., 2010 132 154104
     doi.org/10.1063/1.3382344
  5. Grimme,S.; Ehrlich,S.; Goerigk,L.
     Effect of the damping function in dispersion corrected density functional theory
     J. Comput. Chem., 2011 32(7)1456-1465
     doi.org/10.1002/jcc.21759

List of suggested additional citations. These are papers that are important in the 'surrounding' of 
of this run, or papers that preceded the highly important papers. If you like your results we are grateful for a citation.

  1. Neese,F.
     The ORCA program system
     WIRES Comput. Molec. Sci., 2012 2(1)73-78
     doi.org/10.1002/wcms.81
  2. Neese,F.
     Software update: the ORCA program system, version 4.0
     WIRES Comput. Molec. Sci., 2018 8(1)1-6
     doi.org/10.1002/wcms.1327
  3. Neese,F.; Wennmohs,F.; Becker,U.; Riplinger,C.
     The ORCA quantum chemistry program package
     J. Chem. Phys., 2020 152 Art. No. L224108
     doi.org/10.1063/5.0004608

List of optional additional citations

  1. Neese,F.
     Approximate second-order SCF convergence for spin unrestricted wavefunctions
     Chem. Phys. Lett., 2000 325(1-3)93-98
     doi.org/10.1016/s0009-2614(00)00662-x

Timings for individual modules:

Sum of individual times          ...     1634.600 sec (=  27.243 min)
Startup calculation              ...      103.733 sec (=   1.729 min)   6.3 %
SCF iterations                   ...      418.627 sec (=   6.977 min)  25.6 %
Property integrals               ...      323.726 sec (=   5.395 min)  19.8 %
SCF Response                     ...      488.991 sec (=   8.150 min)  29.9 %
Property calculations            ...      112.415 sec (=   1.874 min)   6.9 %
SCF Gradient evaluation          ...      186.834 sec (=   3.114 min)  11.4 %
Geometry relaxation              ...        0.273 sec (=   0.005 min)   0.0 %
                             ****ORCA TERMINATED NORMALLY****
TOTAL RUN TIME: 0 days 0 hours 27 minutes 18 seconds 435 msec
