
                                 *****************
                                 * O   R   C   A *
                                 *****************

                                            #,                                       
                                            ###                                      
                                            ####                                     
                                            #####                                    
                                            ######                                   
                                           ########,                                 
                                     ,,################,,,,,                         
                               ,,#################################,,                 
                          ,,##########################################,,             
                       ,#########################################, ''#####,          
                    ,#############################################,,   '####,        
                  ,##################################################,,,,####,       
                ,###########''''           ''''###############################       
              ,#####''   ,,,,##########,,,,          '''####'''          '####       
            ,##' ,,,,###########################,,,                        '##       
           ' ,,###''''                  '''############,,,                           
         ,,##''                                '''############,,,,        ,,,,,,###''
      ,#''                                            '''#######################'''  
     '                                                          ''''####''''         
             ,#######,   #######,   ,#######,      ##                                
            ,#'     '#,  ##    ##  ,#'     '#,    #''#        ,####,   ,####,        
            ##       ##  ##   ,#'  ##            #'  '#       #'       #'  '#        
            ##       ##  #######   ##           ,######,      #####,   #    #        
            '#,     ,#'  ##    ##  '#,     ,#' ,#      #,     #,   #   #,  ,#        
             '#######'   ##     ##  '#######'  #'      '#     '####' # '####'        



                #########################################################
                #                        -***-                          #
                #          Department of theory and spectroscopy        #
                #                                                       #
                #                      Frank Neese                      #
                #                                                       #
                #     Directorship, Architecture, Infrastructure        #
                #                    SHARK, DRIVERS                     #
                #        Core code/Algorithms in most modules           #
                #                                                       #
                #        Max Planck Institute fuer Kohlenforschung      #
                #                Kaiser Wilhelm Platz 1                 #
                #                 D-45470 Muelheim/Ruhr                 #
                #                      Germany                          #
                #                                                       #
                #                  All rights reserved                  #
                #                        -***-                          #
                #########################################################


                         Program Version 6.0.1  -  RELEASE   -


 With contributions from (in alphabetic order):
[Max-Planck-Institut fuer Kohlenforschung]                               
  Daniel Aravena         : Magnetic Suceptibility                        
  Michael Atanasov       : Ab Initio Ligand Field Theory (pilot matlab implementation)
  Alexander A. Auer      : GIAO ZORA, VPT2 properties, NMR spectrum      
  Ute Becker             : All parallelization in ORCA, NUMFREQ, NUMCALC 
  Giovanni Bistoni       : ED, misc. LED, open-shell LED, HFLD           
  Martin Brehm           : Molecular dynamics                            
  Dmytro Bykov           : pre 5.0 version of the SCF Hessian            
  Marcos Casanova-Páez   : Triplet and SCS-CIS(D). UHF-(DLPNO)-IP/EA/STEOM-CCSD. UHF-CVS-IP/STEOM-CCSD   
  Vijay G. Chilkuri      : MRCI spin determinant printing, contributions to CSF-ICE 
  Pauline Colinet        : FMM embedding                                 
  Dipayan Datta          : RHF DLPNO-CCSD density                        
  Achintya Kumar Dutta   : EOM-CC, STEOM-CC                              
  Nicolas Foglia         : Exact transition moments, OPA infrastructure, MCD improvements    
  Dmitry Ganyushin       : Spin-Orbit,Spin-Spin,Magnetic field MRCI      
  Miquel Garcia-Rates    : C-PCM and meta-GGA Hessian, CCSD/C-PCM, Gaussian charge scheme 
  Tiago L. C. Gouveia    : GS-ROHF, GS-ROCIS                             
  Yang Guo               : DLPNO-NEVPT2, F12-NEVPT2, CIM, IAO-localization        
  Andreas Hansen         : Spin unrestricted coupled pair/coupled cluster methods 
  Ingolf Harden          : AUTO-CI MPn and infrastructure                
  Benjamin Helmich-Paris : MC-RPA, TRAH-(SCF,CASSCF), AVAS, COSX integrals, SCF dyn. polar. 
  Lee Huntington         : MR-EOM, pCC                                   
  Robert Izsak           : Overlap fitted RIJCOSX, COSX-SCS-MP3, EOM     
  Riya Kayal             : Wick's Theorem for AUTO-CI, AUTO-CI UHF-CCSDT 
  Emily Kempfer          : AUTO-CI, RHF CISDT and CCSDT                  
  Christian Kollmar      : KDIIS, OOCD, Brueckner-CCSD(T), CCSD density, CASPT2, CASPT2-K, improved NEVPT2 
  Axel Koslowski         : Symmetry handling                             
  Simone Kossmann        : meta-GGA functionals, TD-DFT gradient, OOMP2, (MP2 Hessian; deprecated post 5.0) 
  Lucas Lang             : DCDCAS                                        
  Marvin Lechner         : AUTO-CI (C++ implementation), FIC-MRCC        
  Spencer Leger          : CASSCF response                               
  Dagmar Lenk            : GEPOL surface, SMD, ORCA-2-JSON               
  Dimitrios Liakos       : Extrapolation schemes; Compound Job, initial MDCI parallelization 
  Dimitrios Manganas     : Further ROCIS development; embedding schemes. LFT, Crystal Embedding 
  Dimitrios Pantazis     : SARC Basis sets                               
  Anastasios Papadopoulos: AUTO-CI, single reference methods and gradients 
  Taras Petrenko         : pre 6.0 DFT Hessian and TD-DFT gradient, (ASA, deprecated), ECA, 1-Electron XAS/XES, NRVS 
  Peter Pinski           : DLPNO-MP2, DLPNO-MP2 Gradient                 
  Christoph Reimann      : Effective Core Potentials                     
  Marius Retegan         : Local ZFS, SOC                                
  Christoph Riplinger    : Optimizer, TS searches, QM/MM, DLPNO-CCSD(T), (RO)-DLPNO pert. Triples 
  Michael Roemelt        : Original ROCIS implementation                 
  Masaaki Saitow         : Open-shell DLPNO-CCSD energy and density      
  Barbara Sandhoefer     : DKH picture change effects                    
  Kantharuban Sivalingam : CASSCF convergence/infrastructure, NEVPT2 and variants, FIC-MRCI 
  Bernardo de Souza      : ESD, SOC TD-DFT                               
  Georgi L. Stoychev     : AutoAux, RI-MP2 NMR, DLPNO-MP2 response, X2C  
  Van Anh Tran           : RI-MP2 g-tensors                              
  Willem Van den Heuvel  : Paramagnetic NMR                              
  Zikuan Wang            : NOTCH, Electric field optimization            
  Frank Wennmohs         : Technical directorship and infrastructure     
  Hang Xu                : AUTO-CI-Response properties                   
                                                                         
[FACCTs GmbH]                                                            
  Markus Bursch, Miquel Garcia-Rates, Christoph Riplinger, Bernardo de Souza, Georgi L. Stoychev 
                                                                 
  APM, Basis sets (HGBS, AHGBS, def-TZVP (Ac-Lr), def2-XVPD (La-Lu)), CI-OPT, improved COSX, DLPNO-Multilevel,           
  DOCKER, DRACO, updates on ESD, GOAT, IRC, LR-CPCM, MBIS, meta-GGA TD-DFT gradient, ML-optimized integration grids, 
  MM, NACMEs, nearIR, NEB, NEB-TS, NL-DFT gradient (VV10), 2- and 3-layer-ONIOM, interface openCOSMO-RS, QMMM,   
  Crystal-QMMM, SF, symmetry and pop. for TD-DFT, r2SCAN hybrids, SOLVATOR                                   
                                                                         
[Other institutions]                                                     
  V. Asgeirsson          : NEB                                           
  Christoph Bannwarth    : sTDA-DFT, sTD-DFT, PBEh-3c, B97-3c, D3        
  Sebastian Ehlert       : rSCAN, r2SCAN, r2SCAN-3c, D4, dhf basis sets  
  Marvin Friede          : D4 for Fr, Ra, Ac-Lr                          
  Lars Goerigk           : TD-DFT with DH, B97 family of functionals     
  Stefan Grimme          : VdW corrections, initial TS optimization, DFT functionals, gCP, sTDA/sTD-DF 
  Waldemar Hujo          : DFT-NL                                        
  H. Jonsson             : NEB                                           
  Holger Kruse           : gCP                                           
  Marcel Mueller         : wB97X-3c, vDZP basis set                      
  Hagen Neugebauer       : wr2SCAN                                       
  Tobias Risthaus        : range-separated hybrid DFT                    
  Lukas Wittmann         : regularized MP2, r2SCAN double-hybrids, wr2SCAN        
                                                                         
We gratefully acknowledge several colleagues who have allowed us to      
interface, adapt or use parts of their codes:                            
  Ed Valeev, F. Pavosevic, A. Kumar             : LibInt (2-el integral package), F12 methods 
  Garnet Chan, S. Sharma, J. Yang, R. Olivares  : DMRG                   
  Ulf Ekstrom                                   : XCFun DFT Library      
  Mihaly Kallay                                 : mrcc  (arbitrary order and MRCC methods)
  Frank Weinhold                                : gennbo (NPA and NBO analysis)           
  Simon Mueller                                 : openCOSMO-RS                            
  Christopher J. Cramer and Donald G. Truhlar   : smd solvation model                     
  S Lehtola, MJT Oliveira, MAL Marques          : LibXC Library                           
  Liviu Ungur et al                             : ANISO software                          


 Your calculation uses the libint2 library for the computation of 2-el integrals
 For citations please refer to: http://libint.valeyev.net

 Your ORCA version has been built with support for libXC version: 6.2.2
 For citations please refer to: https://libxc.gitlab.io

 This ORCA versions uses:
   CBLAS   interface :  Fast vector & matrix operations
   LAPACKE interface :  Fast linear algebra routines
   SCALAPACK package :  Parallel linear algebra routines
   Shared memory     :  Shared parallel matrices
   BLAS/LAPACK       :  OpenBLAS 0.3.27  USE64BITINT DYNAMIC_ARCH NO_AFFINITY Zen SINGLE_THREADED
        Core in use  :  Zen
   Copyright (c) 2011-2014, The OpenBLAS Project


NOTE: MaxCore=6000 MB was set to SCF,MP2,MDCI,CIPSI,MRCI and CIS
      => If you want to overwrite this, your respective input block should be placed after the MaxCore statement
Your calculation utilizes the atom-pairwise dispersion correction
with the Becke-Johnson damping scheme (D3BJ)


Your calculation employs the composite approach B97-3c by Grimme and coworkers.
For the correct reference, please check the publication list of the Grimme group:
http://www.thch.uni-bonn.de/tc/index.php?section=publikationen&subsection=grimme#2017
   

XCFun DFT library Copyright 2009-2010 Ulf Ekstrom and contributors.
See http://admol.org/xcfun for more information.
This is free software; see the source code for copying conditions.
There is ABSOLUTELY NO WARRANTY; not even for MERCHANTABILITY or FITNESS FOR A PARTICULAR PURPOSE.
For details see the documentation.
Scientific users of this library should cite U. Ekstrom, L. Visscher, R. Bast, A. J. Thorvaldsen and K. Ruud;
J.Chem.Theor.Comp. 2010, DOI: 10.1021/ct100117s
XCFun Version 0.99 

================================================================================

----- Orbital basis set information -----
Your calculation utilizes the basis: def2-mTZVP
----- AuxJ basis set information -----
Your calculation utilizes the basis: def2-mTZVP/J
================================================================================
                                        WARNINGS
                       Please study these warnings very carefully!
================================================================================


WARNING: Geometry Optimization
  ===> : Switching off AutoStart
         For restart on a previous wavefunction, please use MOREAD

================================================================================
                                       INPUT FILE
================================================================================
NAME = m1_00_Vitamin_C-GFN2_00-B97-3C-TZ.inp
|  1> %pal nprocs 16 end
|  2> %MaxCore 6000
|  3> # put your comments here
|  4> ! B97-3C  OPT  FREQ DEFGRID3 NOTRAH
|  5> %scf MaxIter 800 end
|  6> %output
|  7> Print [P_Hirshfeld] 1
|  8> end
|  9> %geom
| 10> MaxIter 3000
| 11>  TolE 1e-6 #TolE 5e-6 Energy change (a.u.)
| 12>  TolRMSG 3e-5 #TolRMSG 1e-4 RMS gradient (a.u.)
| 13>  TolMaxG 1e-4 #TolMaxG 3e-3 Max. element of gradient (a.u.)
| 14>  TolRMSD 2e-3 #TolRMSD 2e-3 RMS displacement (a.u.)
| 15>  TolMaxD 4e-3 #TolMaxD 4e-3 Max. displacement (a.u.)
| 16> end
| 17> * xyz 0 1
| 18>  O -2.30585877175107 -0.14304504033542 -2.25054822307149
| 19>  O -1.90301428807752 1.72604036512189 -0.10465067513665
| 20>  O 1.09457762459183 0.75077138367151 -1.57740226747948
| 21>  O -3.88928760155570 -0.09234038552482 0.07966662024188
| 22>  O -0.15557253481667 2.06604776862107 -4.06901917327881
| 23>  O -2.90161207138893 1.00825226822647 -4.10609222880905
| 24>  C -1.17312130423696 -0.19822876061918 -1.39819881973226
| 25>  C -1.52148880387745 0.38891663590667 0.00384388501104
| 26>  C -0.13836977841218 0.64052819280809 -2.08895235189267
| 27>  C -2.65560762030396 -0.42515133295222 0.65636746430690
| 28>  C -0.70433372678878 1.20793736072453 -3.16915632423157
| 29>  C -2.08007710178957 0.72645022306003 -3.27467613325791
| 30>  H -0.86100878910752 -1.24208558115840 -1.28483074443424
| 31>  H -0.60706337253473 0.34354279346074 0.60426375445265
| 32>  H -2.44501866252213 -1.49917646138870 0.58370477619150
| 33>  H -2.73564560255749 -0.14759618093946 1.71021469510139
| 34>  H -2.87174833466383 1.73909754378612 -0.18931368304317
| 35>  H 1.59148438353481 1.40331807314957 -2.08983577735943
| 36>  H -3.87164411879032 -0.33517674038692 -0.85774557240457
| 37>  H -0.84353752495154 2.28754787476814 -4.71298522117432
| 38> *
| 39> 
| 40> 
| 41> 
| 42> 
| 43>                          ****END OF INPUT****
================================================================================

                       *****************************
                       * Geometry Optimization Run *
                       *****************************

Geometry optimization settings:
Update method            Update   .... BFGS
Choice of coordinates    CoordSys .... (2022) Redundant Internals
Initial Hessian          InHess   .... Almloef's Model
Max. no of cycles        MaxIter  .... 3000

Convergence Tolerances:
Energy Change            TolE     ....  1.0000e-06 Eh
Max. Gradient            TolMAXG  ....  1.0000e-04 Eh/bohr
RMS Gradient             TolRMSG  ....  3.0000e-05 Eh/bohr
Max. Displacement        TolMAXD  ....  4.0000e-03 bohr
RMS Displacement         TolRMSD  ....  2.0000e-03 bohr
Strict Convergence                .... False

------------------------------------------------------------------------------
                        ORCA OPTIMIZATION COORDINATE SETUP
------------------------------------------------------------------------------

The optimization will be done in redundant internal coordinates (2022)
Making redundant internal coordinates   ...  (2022 redundants) done
Evaluating the initial hessian          ...  (Almloef) done
Evaluating the coordinates              ...  done
Calculating the B-matrix                .... done
Calculating the G-matrix                .... done
Diagonalizing the G-matrix              .... done
The first mode is                       ....   40
The number of degrees of freedom        ....   54

    -----------------------------------------------------------------
                    Redundant Internal Coordinates


    -----------------------------------------------------------------
         Definition                    Initial Value    Approx d2E/dq
    -----------------------------------------------------------------
      1. B(C   6,O   0)                  1.4187         0.503647   
      2. B(C   7,O   1)                  1.3947         0.549986   
      3. B(C   7,C   6)                  1.5594         0.335292   
      4. B(C   8,O   2)                  1.3394         0.673910   
      5. B(C   8,C   6)                  1.5005         0.416404   
      6. B(C   9,C   7)                  1.5410         0.358763   
      7. B(C   9,O   3)                  1.4019         0.535668   
      8. B(C  10,C   8)                  1.3450         0.737027   
      9. B(C  10,O   4)                  1.3591         0.626787   
     10. B(C  11,C  10)                  1.4614         0.480679   
     11. B(C  11,O   5)                  1.2023         1.115063   
     12. B(C  11,O   0)                  1.3623         0.619560   
     13. B(H  12,C   6)                  1.0954         0.353025   
     14. B(H  13,C   7)                  1.0949         0.353717   
     15. B(H  14,C   9)                  1.0969         0.351106   
     16. B(H  15,C   9)                  1.0927         0.356520   
     17. B(H  16,O   3)                  2.1123         0.007542   
     18. B(H  16,O   1)                  0.9725         0.496594   
     19. B(H  17,O   2)                  0.9671         0.506532   
     20. B(H  18,O   0)                  2.1044         0.007765   
     21. B(H  18,O   3)                  0.9685         0.503942   
     22. B(H  19,O   4)                  0.9680         0.504872   
     23. A(C   6,O   0,C  11)          110.1307         0.412761   
     24. A(C   7,O   1,H  16)          106.9856         0.359762   
     25. A(C   8,O   2,H  17)          109.0344         0.373781   
     26. A(C   9,O   3,H  18)          108.8206         0.359047   
     27. A(C  10,O   4,H  19)          107.3356         0.368938   
     28. A(O   0,C   6,C   8)          104.6134         0.387370   
     29. A(C   7,C   6,C   8)          110.9459         0.363378   
     30. A(O   0,C   6,H  12)          109.0716         0.337591   
     31. A(C   8,C   6,H  12)          112.5722         0.329091   
     32. A(O   0,C   6,C   7)          110.3134         0.373092   
     33. A(C   7,C   6,H  12)          109.2323         0.317601   
     34. A(C   6,C   7,C   9)          110.2557         0.354279   
     35. A(C   9,C   7,H  13)          111.1347         0.321232   
     36. A(C   6,C   7,H  13)          106.9098         0.317703   
     37. A(O   1,C   7,H  13)          108.1109         0.342705   
     38. A(O   1,C   7,C   6)          110.6180         0.378808   
     39. A(O   1,C   7,C   9)          109.7595         0.383280   
     40. A(O   2,C   8,C   6)          120.3314         0.407699   
     41. A(C   6,C   8,C  10)          108.3824         0.416921   
     42. A(O   2,C   8,C  10)          131.2497         0.451665   
     43. A(H  14,C   9,H  15)          109.0662         0.289234   
     44. A(O   3,C   9,H  15)          105.7821         0.341646   
     45. A(C   7,C   9,H  14)          110.3597         0.320843   
     46. A(O   3,C   9,H  14)          111.9720         0.340772   
     47. A(O   3,C   9,C   7)          110.3679         0.381528   
     48. A(C   7,C   9,H  15)          109.1534         0.321647   
     49. A(C   8,C  10,C  11)          108.3682         0.427750   
     50. A(O   4,C  10,C  11)          122.7047         0.412866   
     51. A(O   4,C  10,C   8)          128.9157         0.445763   
     52. A(O   0,C  11,O   5)          123.7936         0.476570   
     53. A(O   5,C  11,C  10)          128.0214         0.457969   
     54. A(O   0,C  11,C  10)          108.1818         0.412017   
     55. D(C   7,C   6,O   0,C  11)    113.6437         0.021768   
     56. D(C   8,C   6,O   0,C  11)     -5.7268         0.021768   
     57. D(H  12,C   6,O   0,C  11)   -126.3813         0.021768   
     58. D(C   9,C   7,C   6,H  12)    -59.3496         0.009126   
     59. D(O   1,C   7,C   6,C   8)     54.3892         0.009126   
     60. D(C   9,C   7,C   6,C   8)    175.9809         0.009126   
     61. D(C   9,C   7,O   1,H  16)    -28.9098         0.024109   
     62. D(H  13,C   7,O   1,H  16)   -150.2808         0.024109   
     63. D(C   6,C   7,O   1,H  16)     92.9740         0.024109   
     64. D(O   1,C   7,C   6,O   0)    -61.0632         0.009126   
     65. D(O   1,C   7,C   6,H  12)    179.0588         0.009126   
     66. D(C   9,C   7,C   6,O   0)     60.5285         0.009126   
     67. D(O   2,C   8,C   6,O   0)   -176.7323         0.012828   
     68. D(C  10,C   8,O   2,H  17)      3.9958         0.033772   
     69. D(C   6,C   8,O   2,H  17)   -173.5321         0.033772   
     70. D(C  10,C   8,C   6,C   7)   -113.7177         0.012828   
     71. D(C  10,C   8,C   6,O   0)      5.2260         0.012828   
     72. D(O   2,C   8,C   6,H  12)    -58.4335         0.012828   
     73. D(O   2,C   8,C   6,C   7)     64.3240         0.012828   
     74. D(H  14,C   9,C   7,H  13)    -70.6293         0.010331   
     75. D(H  14,C   9,C   7,O   1)    169.8335         0.010331   
     76. D(O   3,C   9,C   7,H  13)    165.0744         0.010331   
     77. D(O   3,C   9,C   7,C   6)    -76.5628         0.010331   
     78. D(O   3,C   9,C   7,O   1)     45.5371         0.010331   
     79. D(H  15,C   9,O   3,H  18)   -179.0715         0.024766   
     80. D(H  14,C   9,C   7,C   6)     47.7336         0.010331   
     81. D(H  14,C   9,O   3,H  18)    -60.3813         0.024766   
     82. D(C   7,C   9,O   3,H  18)     62.9837         0.024766   
     83. D(O   4,C  10,C   8,O   2)      0.6355         0.038611   
     84. D(C  11,C  10,O   4,H  19)      2.1274         0.028869   
     85. D(C   8,C  10,O   4,H  19)   -179.2469         0.028869   
     86. D(C  11,C  10,C   8,C   6)     -2.8313         0.038611   
     87. D(C  11,C  10,C   8,O   2)    179.4170         0.038611   
     88. D(O   4,C  10,C   8,C   6)    178.3872         0.038611   
     89. D(O   5,C  11,C  10,C   8)    179.9077         0.015731   
     90. D(O   5,C  11,C  10,O   4)     -1.2190         0.015731   
     91. D(O   0,C  11,C  10,C   8)     -0.7296         0.015731   
     92. D(O   0,C  11,C  10,O   4)    178.1437         0.015731   
     93. D(C  10,C  11,O   0,C   6)      4.2195         0.031079   
     94. D(O   5,C  11,O   0,C   6)   -176.3846         0.031079   
    -----------------------------------------------------------------

Number of atoms                         .... 20
Number of degrees of freedom            .... 94


         *************************************************************
         *                GEOMETRY OPTIMIZATION CYCLE   1            *
         *************************************************************
---------------------------------
CARTESIAN COORDINATES (ANGSTROEM)
---------------------------------
  O     -2.305859   -0.143045   -2.250548
  O     -1.903014    1.726040   -0.104651
  O      1.094578    0.750771   -1.577402
  O     -3.889288   -0.092340    0.079667
  O     -0.155573    2.066048   -4.069019
  O     -2.901612    1.008252   -4.106092
  C     -1.173121   -0.198229   -1.398199
  C     -1.521489    0.388917    0.003844
  C     -0.138370    0.640528   -2.088952
  C     -2.655608   -0.425151    0.656367
  C     -0.704334    1.207937   -3.169156
  C     -2.080077    0.726450   -3.274676
  H     -0.861009   -1.242086   -1.284831
  H     -0.607063    0.343543    0.604264
  H     -2.445019   -1.499176    0.583705
  H     -2.735646   -0.147596    1.710215
  H     -2.871748    1.739098   -0.189314
  H      1.591484    1.403318   -2.089836
  H     -3.871644   -0.335177   -0.857746
  H     -0.843538    2.287548   -4.712985

----------------------------
CARTESIAN COORDINATES (A.U.)
----------------------------
  NO LB      ZA    FRAG     MASS         X           Y           Z
   0 O     8.0000    0    15.999   -4.357442   -0.270316   -4.252920
   1 O     8.0000    0    15.999   -3.596176    3.261744   -0.197761
   2 O     8.0000    0    15.999    2.068452    1.418752   -2.980858
   3 O     8.0000    0    15.999   -7.349688   -0.174498    0.150548
   4 O     8.0000    0    15.999   -0.293989    3.904264   -7.689332
   5 O     8.0000    0    15.999   -5.483252    1.905321   -7.759390
   6 C     6.0000    0    12.011   -2.216878   -0.374598   -2.642213
   7 C     6.0000    0    12.011   -2.875197    0.734946    0.007264
   8 C     6.0000    0    12.011   -0.261481    1.210423   -3.947548
   9 C     6.0000    0    12.011   -5.018371   -0.803420    1.240355
  10 C     6.0000    0    12.011   -1.330998    2.282671   -5.988838
  11 C     6.0000    0    12.011   -3.930776    1.372792   -6.188241
  12 H     1.0000    0     1.008   -1.627071   -2.347202   -2.427978
  13 H     1.0000    0     1.008   -1.147184    0.649202    1.141893
  14 H     1.0000    0     1.008   -4.620416   -2.833033    1.103042
  15 H     1.0000    0     1.008   -5.169621   -0.278916    3.231837
  16 H     1.0000    0     1.008   -5.426818    3.286418   -0.357751
  17 H     1.0000    0     1.008    3.007470    2.651887   -3.949217
  18 H     1.0000    0     1.008   -7.316347   -0.633392   -1.620904
  19 H     1.0000    0     1.008   -1.594055    4.322839   -8.906251

--------------------------------
INTERNAL COORDINATES (ANGSTROEM)
--------------------------------
 O      0   0   0     0.000000000000     0.00000000     0.00000000
 O      1   0   0     2.874132950500     0.00000000     0.00000000
 O      2   1   0     3.479325238294    67.81703253     0.00000000
 O      2   1   3     2.699215274026    60.64273181   215.24081708
 O      3   2   1     3.082366330458    82.71107311    62.02996544
 O      1   2   3     2.263504151523   108.55265945   260.66024225
 C      1   2   3     1.418675057463    57.64299871    34.25064215
 C      2   1   3     1.394715968184    58.19444560   290.25881918
 C      3   2   1     1.339401488938    52.53080146    18.39344492
 C      4   2   1     1.401896317997    62.64181906    93.76292841
 C      9   3   2     1.345031217688   131.24972319   115.86008803
 C      6   1   2     1.202324757657    30.01096145    67.15035128
 H      7   1   2     1.095401115749   109.07160052   148.04441037
 H      8   2   1     1.094868336689   108.11093470   145.21461567
 H     10   4   2     1.096885386855   111.97195959   213.63244645
 H     10   4   2     1.092719967268   105.78209089    94.94217116
 H      2   1   3     0.972514250712    78.70362988   171.93734136
 H      3   2   1     0.967120267123   118.54260537   111.30917546
 H      4   2   1     0.968515568615    95.12976278   345.20614309
 H      5   3   2     0.968013633952   157.46307869   316.91521319

---------------------------
INTERNAL COORDINATES (A.U.)
---------------------------
 O      0   0   0     0.000000000000     0.00000000     0.00000000
 O      1   0   0     5.431324148925     0.00000000     0.00000000
 O      2   1   0     6.574971831216    67.81703253     0.00000000
 O      2   1   3     5.100777644406    60.64273181   215.24081708
 O      3   2   1     5.824828208985    82.71107311    62.02996544
 O      1   2   3     4.277402949371   108.55265945   260.66024225
 C      1   2   3     2.680907331630    57.64299871    34.25064215
 C      2   1   3     2.635631214474    58.19444560   290.25881918
 C      3   2   1     2.531101997459    52.53080146    18.39344492
 C      4   2   1     2.649200109167    62.64181906    93.76292841
 C      9   3   2     2.541740643004   131.24972319   115.86008803
 C      6   1   2     2.272064516006    30.01096145    67.15035128
 H      7   1   2     2.070008115557   109.07160052   148.04441037
 H      8   2   1     2.069001309045   108.11093470   145.21461567
 H     10   4   2     2.072812981457   111.97195959   213.63244645
 H     10   4   2     2.064941479203   105.78209089    94.94217116
 H      2   1   3     1.837785595181    78.70362988   171.93734136
 H      3   2   1     1.827592443427   118.54260537   111.30917546
 H      4   2   1     1.830229181121    95.12976278   345.20614309
 H      5   3   2     1.829280662071   157.46307869   316.91521319

---------------------
BASIS SET INFORMATION
---------------------
There are 3 groups of distinct atoms

 Group   1 Type O   : 11s6p2d contracted to 5s3p2d pattern {62111/411/11}
 Group   2 Type C   : 11s6p1d contracted to 5s3p1d pattern {62111/411/1}
 Group   3 Type H   : 5s contracted to 3s pattern {311}

Atom   0O    basis set group =>   1
Atom   1O    basis set group =>   1
Atom   2O    basis set group =>   1
Atom   3O    basis set group =>   1
Atom   4O    basis set group =>   1
Atom   5O    basis set group =>   1
Atom   6C    basis set group =>   2
Atom   7C    basis set group =>   2
Atom   8C    basis set group =>   2
Atom   9C    basis set group =>   2
Atom  10C    basis set group =>   2
Atom  11C    basis set group =>   2
Atom  12H    basis set group =>   3
Atom  13H    basis set group =>   3
Atom  14H    basis set group =>   3
Atom  15H    basis set group =>   3
Atom  16H    basis set group =>   3
Atom  17H    basis set group =>   3
Atom  18H    basis set group =>   3
Atom  19H    basis set group =>   3
---------------------------------
AUXILIARY/J BASIS SET INFORMATION
---------------------------------
There are 3 groups of distinct atoms

 Group   1 Type O   : 8s3p3d contracted to 6s3p3d pattern {311111/111/111}
 Group   2 Type C   : 8s3p3d contracted to 6s3p3d pattern {311111/111/111}
 Group   3 Type H   : 5s2p contracted to 3s1p pattern {311/2}

Atom   0O    basis set group =>   1
Atom   1O    basis set group =>   1
Atom   2O    basis set group =>   1
Atom   3O    basis set group =>   1
Atom   4O    basis set group =>   1
Atom   5O    basis set group =>   1
Atom   6C    basis set group =>   2
Atom   7C    basis set group =>   2
Atom   8C    basis set group =>   2
Atom   9C    basis set group =>   2
Atom  10C    basis set group =>   2
Atom  11C    basis set group =>   2
Atom  12H    basis set group =>   3
Atom  13H    basis set group =>   3
Atom  14H    basis set group =>   3
Atom  15H    basis set group =>   3
Atom  16H    basis set group =>   3
Atom  17H    basis set group =>   3
Atom  18H    basis set group =>   3
Atom  19H    basis set group =>   3


           ************************************************************
           *        Program running with 16 parallel MPI-processes    *
           *              working on a common directory               *
           ************************************************************
------------------------------------------------------------------------------
                             ORCA STARTUP CALCULATIONS
                           -- RI-GTO INTEGRALS CHOSEN --
------------------------------------------------------------------------------
------------------------------------------------------------------------------
                   ___                                                        
                  /   \      - P O W E R E D   B Y -                         
                 /     \                                                     
                 |  |  |   _    _      __       _____    __    __             
                 |  |  |  | |  | |    /  \     |  _  \  |  |  /  |          
                  \  \/   | |  | |   /    \    | | | |  |  | /  /          
                 / \  \   | |__| |  /  /\  \   | |_| |  |  |/  /          
                |  |  |   |  __  | /  /__\  \  |    /   |      \           
                |  |  |   | |  | | |   __   |  |    \   |  |\   \          
                \     /   | |  | | |  |  |  |  | |\  \  |  | \   \       
                 \___/    |_|  |_| |__|  |__|  |_| \__\ |__|  \__/        
                                                                              
                      - O R C A' S   B I G   F R I E N D -                    
                                      &                                       
                       - I N T E G R A L  F E E D E R -                       
                                                                              
 v1 FN, 2020, v2 2021, v3 2022-2024                                           
------------------------------------------------------------------------------


----------------------
SHARK INTEGRAL PACKAGE
----------------------

Number of atoms                             ...     20
Number of basis functions                   ...    282
Number of shells                            ...    138
Maximum angular momentum                    ...      2
Integral batch strategy                     ... SHARK/LIBINT Hybrid
RI-J (if used) integral strategy            ... SPLIT-RIJ (Revised 2003 algorithm where possible)
Printlevel                                  ...      1
Contraction scheme used                     ... SEGMENTED contraction
Prescreening option                         ... SCHWARTZ
   Thresh                                   ... 2.500e-11
   Tcut                                     ... 2.500e-12
   Tpresel                                  ... 2.500e-12 
Coulomb Range Separation                    ... NOT USED
Exchange Range Separation                   ... NOT USED
Multipole approximations                    ... NOT USED
Finite Nucleus Model                        ... NOT USED
CABS basis                                  ... NOT available
Auxiliary Coulomb fitting basis             ... AVAILABLE
   # of basis functions in Aux-J            ...    408
   # of shells in Aux-J                     ...    176
   Maximum angular momentum in Aux-J        ...      2
Auxiliary J/K fitting basis                 ... NOT available
Auxiliary Correlation fitting basis         ... NOT available
Auxiliary 'external' fitting basis          ... NOT available

Checking pre-screening integrals            ... done (  0.0 sec) Dimension = 138
Check shell pair data                       ... done (  0.0 sec)
Shell pair information
Shell pair cut-off parameter TPreSel        ...   2.5e-12
Total number of shell pairs                 ...      9591
Shell pairs after pre-screening             ...      8413
Total number of primitive shell pairs       ...     34741
Primitive shell pairs kept                  ...     20890
          la=0 lb=0:   2913 shell pairs
          la=1 lb=0:   2725 shell pairs
          la=1 lb=1:    640 shell pairs
          la=2 lb=0:   1350 shell pairs
          la=2 lb=1:    620 shell pairs
          la=2 lb=2:    165 shell pairs

Calculating one electron integrals          ... done (  0.0 sec)
Calculating RI/J V-Matrix + Cholesky decomp.... done (  0.0 sec)
Calculating Nuclear repulsion               ... done (  0.0 sec) ENN=    776.798986740259 Eh

Diagonalization of the overlap matrix:
Smallest eigenvalue                        ... 3.030e-05
Time for diagonalization                   ...    0.006 sec
Threshold for overlap eigenvalues          ... 1.000e-07
Number of eigenvalues below threshold      ... 0
Time for construction of square roots      ...    0.003 sec
Total time needed                          ...    0.009 sec

-------------------
DFT GRID GENERATION
-------------------

General Integration Accuracy     IntAcc      ... 4.959
Radial Grid Type                 RadialGrid  ... OptM3 with GC (2021)
Angular Grid (max. ang.)         AngularGrid ... 6 (Lebedev-590)
Angular grid pruning method      GridPruning ... 4 (adaptive)
Weight generation scheme         WeightScheme... mBecke (2022)
Basis function cutoff            BFCut       ... 1.0000e-11
Integration weight cutoff        WCut        ... 1.0000e-14
Partially contracted basis set               ... off
Rotationally invariant grid construction     ... off
Angular grids for H and He will be reduced by one unit
Diffuse basis detected: some atoms will have their outermost
                        angular grid increased by 1.

Total number of grid points                  ...   244030
Total number of batches                      ...     3823
Average number of points per batch           ...       63
Average number of grid points per atom       ...    12202
Initializing property integral containers    ... done (  0.0 sec)

SHARK setup successfully completed in   1.8 seconds

Maximum memory used throughout the entire STARTUP-calculation: 54.7 MB


           ************************************************************
           *        Program running with 16 parallel MPI-processes    *
           *              working on a common directory               *
           ************************************************************
-------------------------------------------------------------------------------
                                 ORCA GUESS
                   Start orbitals & Density for SCF / CASSCF
-------------------------------------------------------------------------------

------------
SCF SETTINGS
------------
Hamiltonian:
 Density Functional     Method          .... DFT(GTOs)
 Exchange Functional    Exchange        .... B973C
 Correlation Functional Correlation     .... B973C
 Gradients option       PostSCFGGA      .... off
 RI-approximation to the Coulomb term is turned on
   Number of AuxJ basis functions       .... 408


General Settings:
 Integral files         IntName         .... m1_00_Vitamin_C-GFN2_00-B97-3C-TZ
 Hartree-Fock type      HFTyp           .... RHF
 Total Charge           Charge          ....    0
 Multiplicity           Mult            ....    1
 Number of Electrons    NEL             ....   92
 Basis Dimension        Dim             ....  282
 Nuclear Repulsion      ENuc            ....    776.7989867403 Eh

Convergence Acceleration:
 AO-DIIS                CNVDIIS         .... on
   Start iteration      DIISMaxIt       ....    12
   Startup error        DIISStart       ....  0.200000
   # of expansion vecs  DIISMaxEq       ....     5
   Bias factor          DIISBfac        ....   1.050
   Max. coefficient     DIISMaxC        ....  10.000
 MO-DIIS                CNVKDIIS        .... off
 Trust-Rad. Augm. Hess. CNVTRAH         .... off
 SOSCF                  CNVSOSCF        .... on
   Start iteration      SOSCFMaxIt      ....   150
   Startup grad/error   SOSCFStart      ....  0.003300
   Hessian update       SOSCFHessUp     .... L-BFGS
 Level Shifting         CNVShift        .... on
   Level shift para.    LevelShift      ....    0.2500
   Turn off err/grad.   ShiftErr        ....    0.0010
 Zerner damping         CNVZerner       .... off
 Static damping         CNVDamp         .... on
   Fraction old density DampFac         ....    0.7000
   Max. Damping (<1)    DampMax         ....    0.9800
   Min. Damping (>=0)   DampMin         ....    0.0000
   Turn off err/grad.   DampErr         ....    0.1000

SCF Procedure:
 Maximum # iterations   MaxIter         ....   800
 SCF integral mode      SCFMode         .... Direct
   Integral package                     .... SHARK and LIBINT hybrid scheme
 Reset frequency        DirectResetFreq ....    20
 Integral Threshold     Thresh          ....  2.500e-11 Eh
 Primitive CutOff       TCut            ....  2.500e-12 Eh

Convergence Tolerance:
 Convergence Check Mode ConvCheckMode   .... Total+1el-Energy
 Convergence forced     ConvForced      .... 0
 Energy Change          TolE            ....  1.000e-08 Eh
 1-El. energy change                    ....  1.000e-05 Eh
 Orbital Gradient       TolG            ....  1.000e-05
 Orbital Rotation angle TolX            ....  1.000e-05
 DIIS Error             TolErr          ....  5.000e-07

--------------------------------
INITIAL GUESS: MINIMAL BASIS EHT
--------------------------------
The minimal basis has 68 functions
EHT matrix was diagonalized
Basis set overlap was calculated now projecting the orbitals
Using GuessMode=FMatrix for the initial guess
C*T matrix was formed
Effective Fockian was calculated
Effective Fockian was diagonalized
Initial density was built
                      ------------------
                      INITIAL GUESS DONE
                      ------------------
             **** ENERGY FILE WAS UPDATED (m1_00_Vitamin_C-GFN2_00-B97-3C-TZ.en.tmp) ****
Finished Guess after   0.1 sec
Maximum memory used throughout the entire GUESS-calculation: 15.5 MB


           ************************************************************
           *        Program running with 16 parallel MPI-processes    *
           *              working on a common directory               *
           ************************************************************

-------------------------------------------------------------------------------------------
                                      ORCA LEAN-SCF
                              memory conserving SCF solver
-------------------------------------------------------------------------------------------

----------------------------------------D-I-I-S--------------------------------------------
Iteration    Energy (Eh)           Delta-E    RMSDP     MaxDP     DIISErr   Damp  Time(sec)
-------------------------------------------------------------------------------------------
               ***  Starting incremental Fock matrix formation  ***
    1    -681.9625916756128845     0.00e+00  7.28e-03  1.60e-01  4.47e-01  0.700   0.3
    2    -682.8716886102902208    -9.09e-01  6.17e-03  2.79e-01  3.21e-01  0.700   0.3
    3    -683.3042358293434972    -4.33e-01  3.62e-03  1.35e-01  2.26e-01  0.700   0.3
                               ***Turning on AO-DIIS***
    4    -683.6315305104085382    -3.27e-01  2.52e-03  1.15e-01  1.57e-01  0.700   0.3
    5    -683.8605619120833126    -2.29e-01  1.86e-03  9.72e-02  1.09e-01  0.700   0.3
    6    -684.0211798268412622    -1.61e-01  1.27e-03  5.70e-02  7.65e-02  0.700   0.3
    7    -684.1338910763302010    -1.13e-01  2.94e-03  1.06e-01  5.37e-02  0.000   0.3
    8    -684.3939008138474946    -2.60e-01  5.56e-04  3.11e-02  3.26e-02  0.000   0.3
    9    -684.3965882474428781    -2.69e-03  1.95e-04  8.38e-03  1.25e-02  0.000   0.3
   10    -684.3966575254034979    -6.93e-05  6.98e-05  2.34e-03  8.02e-03  0.000   0.3
                              *** Initializing SOSCF ***
---------------------------------------S-O-S-C-F--------------------------------------
Iteration    Energy (Eh)           Delta-E    RMSDP     MaxDP     MaxGrad    Time(sec)
--------------------------------------------------------------------------------------
   11    -684.3968406504127415    -1.83e-04  3.23e-05  2.36e-03  1.27e-03     0.3
               *** Restarting incremental Fock matrix formation ***
   12    -684.3968494919977275    -8.84e-06  3.30e-05  2.53e-03  9.85e-05     0.3
   13    -684.3968478618496647     1.63e-06  1.25e-05  4.43e-04  1.90e-04     0.2
   14    -684.3968499652912669    -2.10e-06  1.12e-05  8.51e-04  2.36e-05     0.2
   15    -684.3968498711010398     9.42e-08  3.50e-06  1.68e-04  5.84e-05     0.2
   16    -684.3968499793211322    -1.08e-07  2.90e-06  1.44e-04  5.58e-06     0.2
   17    -684.3968499766276636     2.69e-09  3.04e-06  1.90e-04  1.07e-05     0.2
                 **** Energy Check signals convergence ****

               *****************************************************
               *                     SUCCESS                       *
               *           SCF CONVERGED AFTER  17 CYCLES          *
               *****************************************************

             **** ENERGY FILE WAS UPDATED (m1_00_Vitamin_C-GFN2_00-B97-3C-TZ.en.tmp) ****

----------------
TOTAL SCF ENERGY
----------------

Total Energy       :       -684.39684997662766 Eh          -18623.38508 eV

Components:
Nuclear Repulsion  :        776.79898674025935 Eh           21137.77505 eV
Electronic Energy  :      -1461.19583671688702 Eh          -39761.16014 eV
One Electron Energy:      -2480.03005516380244 Eh          -67485.04867 eV
Two Electron Energy:       1018.83421844691543 Eh           27723.88854 eV

Virial components:
Potential Energy   :      -1366.34816150394977 Eh          -37180.22368 eV
Kinetic Energy     :        681.95131152732210 Eh           18556.83860 eV
Virial Ratio       :          2.00358608951690

DFT components:
N(Alpha)           :       45.999999793238 electrons
N(Beta)            :       45.999999793238 electrons
N(Total)           :       91.999999586475 electrons
E(XC)              :      -86.650948919814 Eh       

---------------
SCF CONVERGENCE
---------------

  Last Energy change         ...   -2.6935e-09  Tolerance :   1.0000e-08
  Last MAX-Density change    ...    1.9042e-04  Tolerance :   1.0000e-07
  Last RMS-Density change    ...    3.0402e-06  Tolerance :   5.0000e-09
  Last DIIS Error            ...    1.2741e-03  Tolerance :   5.0000e-07
  Last Orbital Gradient      ...    1.0668e-05  Tolerance :   1.0000e-05
  Last Orbital Rotation      ...    2.6117e-05  Tolerance :   1.0000e-05


----------------
ORBITAL ENERGIES
----------------

  NO   OCC          E(Eh)            E(eV) 
   0   2.0000     -18.816358      -512.0191 
   1   2.0000     -18.810450      -511.8584 
   2   2.0000     -18.797547      -511.5073 
   3   2.0000     -18.760375      -510.4958 
   4   2.0000     -18.754077      -510.3244 
   5   2.0000     -18.740552      -509.9563 
   6   2.0000     -10.023330      -272.7487 
   7   2.0000      -9.983715      -271.6707 
   8   2.0000      -9.979295      -271.5504 
   9   2.0000      -9.964558      -271.1494 
  10   2.0000      -9.963698      -271.1260 
  11   2.0000      -9.953646      -270.8525 
  12   2.0000      -1.049511       -28.5586 
  13   2.0000      -1.022269       -27.8174 
  14   2.0000      -0.998859       -27.1803 
  15   2.0000      -0.977855       -26.6088 
  16   2.0000      -0.960609       -26.1395 
  17   2.0000      -0.947267       -25.7764 
  18   2.0000      -0.752754       -20.4835 
  19   2.0000      -0.719328       -19.5739 
  20   2.0000      -0.658433       -17.9169 
  21   2.0000      -0.594097       -16.1662 
  22   2.0000      -0.586769       -15.9668 
  23   2.0000      -0.568081       -15.4583 
  24   2.0000      -0.518497       -14.1090 
  25   2.0000      -0.501065       -13.6347 
  26   2.0000      -0.492820       -13.4103 
  27   2.0000      -0.472758       -12.8644 
  28   2.0000      -0.451632       -12.2895 
  29   2.0000      -0.433935       -11.8080 
  30   2.0000      -0.421403       -11.4670 
  31   2.0000      -0.403700       -10.9852 
  32   2.0000      -0.390323       -10.6212 
  33   2.0000      -0.386463       -10.5162 
  34   2.0000      -0.380759       -10.3610 
  35   2.0000      -0.377384       -10.2692 
  36   2.0000      -0.360654        -9.8139 
  37   2.0000      -0.339148        -9.2287 
  38   2.0000      -0.332819        -9.0565 
  39   2.0000      -0.316889        -8.6230 
  40   2.0000      -0.295064        -8.0291 
  41   2.0000      -0.284494        -7.7415 
  42   2.0000      -0.258399        -7.0314 
  43   2.0000      -0.251030        -6.8309 
  44   2.0000      -0.235595        -6.4109 
  45   2.0000      -0.205812        -5.6004 
  46   0.0000      -0.061241        -1.6664 
  47   0.0000      -0.014959        -0.4071 
  48   0.0000       0.009440         0.2569 
  49   0.0000       0.024752         0.6735 
  50   0.0000       0.037342         1.0161 
  51   0.0000       0.046234         1.2581 
  52   0.0000       0.061246         1.6666 
  53   0.0000       0.066675         1.8143 
  54   0.0000       0.075262         2.0480 
  55   0.0000       0.084723         2.3054 
  56   0.0000       0.100388         2.7317 
*Only the first 10 virtual orbitals were printed.

                    ********************************
                    * MULLIKEN POPULATION ANALYSIS *
                    ********************************

-----------------------
MULLIKEN ATOMIC CHARGES
-----------------------
   0 O :   -0.287699
   1 O :   -0.559167
   2 O :   -0.551190
   3 O :   -0.598512
   4 O :   -0.562216
   5 O :   -0.375353
   6 C :   -0.108489
   7 C :    0.042577
   8 C :    0.228216
   9 C :   -0.181218
  10 C :    0.124941
  11 C :    0.320803
  12 H :    0.198771
  13 H :    0.192950
  14 H :    0.162496
  15 H :    0.180059
  16 H :    0.432553
  17 H :    0.454949
  18 H :    0.434065
  19 H :    0.451465
Sum of atomic charges:   -0.0000000

--------------------------------
MULLIKEN REDUCED ORBITAL CHARGES
--------------------------------
  0 O s       :     3.727175  s :     3.727175
      pz      :     1.372097  p :     4.501679
      px      :     1.525085
      py      :     1.604498
      dz2     :     0.002836  d :     0.058845
      dxz     :     0.029802
      dyz     :     0.006825
      dx2y2   :     0.015213
      dxy     :     0.004168

  1 O s       :     3.814536  s :     3.814536
      pz      :     1.876241  p :     4.717265
      px      :     1.430202
      py      :     1.410822
      dz2     :     0.004079  d :     0.027366
      dxz     :     0.013149
      dyz     :     0.000314
      dx2y2   :     0.015726
      dxy     :    -0.005902

  2 O s       :     3.790042  s :     3.790042
      pz      :     1.704873  p :     4.708395
      px      :     1.351276
      py      :     1.652245
      dz2     :     0.006773  d :     0.052753
      dxz     :     0.015280
      dyz     :     0.010352
      dx2y2   :     0.009974
      dxy     :     0.010373

  3 O s       :     3.815070  s :     3.815070
      pz      :     1.402450  p :     4.752173
      px      :     1.514579
      py      :     1.835144
      dz2     :     0.014816  d :     0.031269
      dxz     :     0.001418
      dyz     :     0.006088
      dx2y2   :     0.005417
      dxy     :     0.003530

  4 O s       :     3.786454  s :     3.786454
      pz      :     1.456358  p :     4.727425
      px      :     1.626114
      py      :     1.644954
      dz2     :     0.007649  d :     0.048336
      dxz     :     0.015136
      dyz     :     0.007073
      dx2y2   :     0.007292
      dxy     :     0.011187

  5 O s       :     3.841475  s :     3.841475
      pz      :     1.431747  p :     4.498312
      px      :     1.522925
      py      :     1.543640
      dz2     :     0.005138  d :     0.035566
      dxz     :     0.013501
      dyz     :     0.005133
      dx2y2   :     0.005973
      dxy     :     0.005821

  6 C s       :     3.090286  s :     3.090286
      pz      :     0.961575  p :     2.948697
      px      :     0.850018
      py      :     1.137104
      dz2     :     0.014401  d :     0.069506
      dxz     :     0.018892
      dyz     :     0.009391
      dx2y2   :     0.013792
      dxy     :     0.013031

  7 C s       :     3.063388  s :     3.063388
      pz      :     0.995259  p :     2.822763
      px      :     1.070616
      py      :     0.756888
      dz2     :     0.010398  d :     0.071273
      dxz     :     0.012844
      dyz     :     0.018029
      dx2y2   :     0.017026
      dxy     :     0.012975

  8 C s       :     3.113340  s :     3.113340
      pz      :     0.890366  p :     2.585787
      px      :     0.731764
      py      :     0.963657
      dz2     :     0.014781  d :     0.072658
      dxz     :     0.019940
      dyz     :     0.008082
      dx2y2   :     0.012393
      dxy     :     0.017461

  9 C s       :     3.229032  s :     3.229032
      pz      :     1.043506  p :     2.886790
      px      :     0.782008
      py      :     1.061276
      dz2     :     0.016378  d :     0.065396
      dxz     :     0.011697
      dyz     :     0.004815
      dx2y2   :     0.017607
      dxy     :     0.014899

 10 C s       :     3.040713  s :     3.040713
      pz      :     0.875068  p :     2.763526
      px      :     0.906026
      py      :     0.982432
      dz2     :     0.019740  d :     0.070820
      dxz     :     0.013721
      dyz     :     0.012077
      dx2y2   :     0.014085
      dxy     :     0.011196

 11 C s       :     3.020826  s :     3.020826
      pz      :     0.804092  p :     2.535635
      px      :     0.891094
      py      :     0.840449
      dz2     :     0.033075  d :     0.122736
      dxz     :     0.021062
      dyz     :     0.025078
      dx2y2   :     0.024686
      dxy     :     0.018835

 12 H s       :     0.801229  s :     0.801229

 13 H s       :     0.807050  s :     0.807050

 14 H s       :     0.837504  s :     0.837504

 15 H s       :     0.819941  s :     0.819941

 16 H s       :     0.567447  s :     0.567447

 17 H s       :     0.545051  s :     0.545051

 18 H s       :     0.565935  s :     0.565935

 19 H s       :     0.548535  s :     0.548535



                     *******************************
                     * LOEWDIN POPULATION ANALYSIS *
                     *******************************

----------------------
LOEWDIN ATOMIC CHARGES
----------------------
   0 O :   -0.624280
   1 O :   -0.681922
   2 O :   -0.537635
   3 O :   -0.711118
   4 O :   -0.571130
   5 O :   -0.374976
   6 C :    0.167703
   7 C :    0.121228
   8 C :    0.259234
   9 C :    0.049116
  10 C :    0.222443
  11 C :    0.394365
  12 H :    0.202220
  13 H :    0.196550
  14 H :    0.169511
  15 H :    0.189706
  16 H :    0.377238
  17 H :    0.389832
  18 H :    0.373169
  19 H :    0.388746

-------------------------------
LOEWDIN REDUCED ORBITAL CHARGES
-------------------------------
  0 O s       :     3.447520  s :     3.447520
      pz      :     1.422764  p :     4.610038
      px      :     1.557947
      py      :     1.629327
      dz2     :     0.119749  d :     0.566722
      dxz     :     0.149049
      dyz     :     0.108080
      dx2y2   :     0.096722
      dxy     :     0.093123

  1 O s       :     3.532644  s :     3.532644
      pz      :     1.852390  p :     4.801853
      px      :     1.451392
      py      :     1.498071
      dz2     :     0.045929  d :     0.347426
      dxz     :     0.035005
      dyz     :     0.075063
      dx2y2   :     0.102830
      dxy     :     0.088599

  2 O s       :     3.509820  s :     3.509820
      pz      :     1.688178  p :     4.752202
      px      :     1.414394
      py      :     1.649630
      dz2     :     0.040813  d :     0.275612
      dxz     :     0.078114
      dyz     :     0.026488
      dx2y2   :     0.055468
      dxy     :     0.074730

  3 O s       :     3.541537  s :     3.541537
      pz      :     1.440599  p :     4.823880
      px      :     1.564500
      py      :     1.818781
      dz2     :     0.089554  d :     0.345701
      dxz     :     0.081308
      dyz     :     0.023682
      dx2y2   :     0.071258
      dxy     :     0.079899

  4 O s       :     3.518753  s :     3.518753
      pz      :     1.488113  p :     4.779765
      px      :     1.624652
      py      :     1.666999
      dz2     :     0.060585  d :     0.272612
      dxz     :     0.065377
      dyz     :     0.052263
      dx2y2   :     0.050136
      dxy     :     0.044252

  5 O s       :     3.528882  s :     3.528882
      pz      :     1.503754  p :     4.619700
      px      :     1.582689
      py      :     1.533257
      dz2     :     0.049061  d :     0.226394
      dxz     :     0.062455
      dyz     :     0.041042
      dx2y2   :     0.040762
      dxy     :     0.033074

  6 C s       :     2.810424  s :     2.810424
      pz      :     0.973619  p :     2.884909
      px      :     0.869279
      py      :     1.042011
      dz2     :     0.028743  d :     0.136964
      dxz     :     0.039685
      dyz     :     0.016824
      dx2y2   :     0.026629
      dxy     :     0.025085

  7 C s       :     2.822242  s :     2.822242
      pz      :     0.993689  p :     2.911692
      px      :     1.024776
      py      :     0.893226
      dz2     :     0.021093  d :     0.144838
      dxz     :     0.023316
      dyz     :     0.037177
      dx2y2   :     0.035382
      dxy     :     0.027869

  8 C s       :     2.759504  s :     2.759504
      pz      :     0.978079  p :     2.821392
      px      :     0.885335
      py      :     0.957977
      dz2     :     0.029816  d :     0.159870
      dxz     :     0.048027
      dyz     :     0.016145
      dx2y2   :     0.029436
      dxy     :     0.036447

  9 C s       :     2.860472  s :     2.860472
      pz      :     1.024488  p :     2.960686
      px      :     0.895806
      py      :     1.040392
      dz2     :     0.030462  d :     0.129727
      dxz     :     0.025002
      dyz     :     0.007500
      dx2y2   :     0.035591
      dxy     :     0.031172

 10 C s       :     2.754188  s :     2.754188
      pz      :     0.952717  p :     2.868092
      px      :     0.968991
      py      :     0.946384
      dz2     :     0.040420  d :     0.155278
      dxz     :     0.030924
      dyz     :     0.029263
      dx2y2   :     0.028503
      dxy     :     0.026168

 11 C s       :     2.726129  s :     2.726129
      pz      :     0.857285  p :     2.607112
      px      :     0.947798
      py      :     0.802030
      dz2     :     0.069367  d :     0.272393
      dxz     :     0.050826
      dyz     :     0.061130
      dx2y2   :     0.053077
      dxy     :     0.037994

 12 H s       :     0.797780  s :     0.797780

 13 H s       :     0.803450  s :     0.803450

 14 H s       :     0.830489  s :     0.830489

 15 H s       :     0.810294  s :     0.810294

 16 H s       :     0.622762  s :     0.622762

 17 H s       :     0.610168  s :     0.610168

 18 H s       :     0.626831  s :     0.626831

 19 H s       :     0.611254  s :     0.611254



                      *****************************
                      * MAYER POPULATION ANALYSIS *
                      *****************************

  NA   - Mulliken gross atomic population
  ZA   - Total nuclear charge
  QA   - Mulliken gross atomic charge
  VA   - Mayer's total valence
  BVA  - Mayer's bonded valence
  FA   - Mayer's free valence

  ATOM       NA         ZA         QA         VA         BVA        FA
  0 O      8.2877     8.0000    -0.2877     2.0933     2.0933    -0.0000
  1 O      8.5592     8.0000    -0.5592     1.8177     1.8177    -0.0000
  2 O      8.5512     8.0000    -0.5512     2.0462     2.0462    -0.0000
  3 O      8.5985     8.0000    -0.5985     1.7840     1.7840     0.0000
  4 O      8.5622     8.0000    -0.5622     1.9889     1.9889    -0.0000
  5 O      8.3754     8.0000    -0.3754     2.2136     2.2136     0.0000
  6 C      6.1085     6.0000    -0.1085     3.8220     3.8220    -0.0000
  7 C      5.9574     6.0000     0.0426     3.5232     3.5232    -0.0000
  8 C      5.7718     6.0000     0.2282     4.0329     4.0329    -0.0000
  9 C      6.1812     6.0000    -0.1812     3.8406     3.8406    -0.0000
 10 C      5.8751     6.0000     0.1249     3.8021     3.8021    -0.0000
 11 C      5.6792     6.0000     0.3208     4.0311     4.0311    -0.0000
 12 H      0.8012     1.0000     0.1988     0.9152     0.9152    -0.0000
 13 H      0.8071     1.0000     0.1929     0.9457     0.9457    -0.0000
 14 H      0.8375     1.0000     0.1625     0.9364     0.9364    -0.0000
 15 H      0.8199     1.0000     0.1801     0.9453     0.9453    -0.0000
 16 H      0.5674     1.0000     0.4326     0.8134     0.8134    -0.0000
 17 H      0.5451     1.0000     0.4549     0.7693     0.7693    -0.0000
 18 H      0.5659     1.0000     0.4341     0.8092     0.8092     0.0000
 19 H      0.5485     1.0000     0.4515     0.7805     0.7805    -0.0000

  Mayer bond orders larger than 0.100000
B(  0-O ,  6-C ) :   1.0049 B(  0-O , 11-C ) :   0.9950 B(  1-O ,  7-C ) :   1.0586 
B(  1-O , 16-H ) :   0.7244 B(  2-O ,  8-C ) :   1.1521 B(  2-O , 17-H ) :   0.7411 
B(  3-O ,  7-C ) :  -0.1167 B(  3-O ,  9-C ) :   1.0456 B(  3-O , 18-H ) :   0.7386 
B(  4-O , 10-C ) :   1.1434 B(  4-O , 19-H ) :   0.7272 B(  5-O , 11-C ) :   2.0546 
B(  6-C ,  7-C ) :   0.8656 B(  6-C ,  8-C ) :   0.9811 B(  6-C , 12-H ) :   0.8824 
B(  7-C ,  9-C ) :   0.9062 B(  7-C , 13-H ) :   0.9026 B(  8-C , 10-C ) :   1.6408 
B(  9-C , 14-H ) :   0.9523 B(  9-C , 15-H ) :   0.9444 B( 10-C , 11-C ) :   0.9242 



------------------
HIRSHFELD ANALYSIS
------------------

Total integrated alpha density =     45.999999793
Total integrated beta density  =     45.999999793

  ATOM     CHARGE      SPIN    
   0 O   -0.120130    0.000000
   1 O   -0.236319    0.000000
   2 O   -0.163162    0.000000
   3 O   -0.222914    0.000000
   4 O   -0.196184    0.000000
   5 O   -0.287661    0.000000
   6 C    0.058070    0.000000
   7 C    0.053428    0.000000
   8 C    0.064408    0.000000
   9 C    0.030712    0.000000
  10 C    0.021966    0.000000
  11 C    0.177877    0.000000
  12 H    0.046847    0.000000
  13 H    0.042099    0.000000
  14 H    0.028121    0.000000
  15 H    0.042018    0.000000
  16 H    0.142063    0.000000
  17 H    0.195291    0.000000
  18 H    0.145149    0.000000
  19 H    0.178321    0.000000

  TOTAL   0.000000    0.000000

-------
TIMINGS
-------

Total SCF time: 0 days 0 hours 0 min 5 sec 

Total time                  ....       5.023 sec
Sum of individual times     ....       4.969 sec  ( 98.9%)

SCF preparation             ....       0.121 sec  (  2.4%)
Fock matrix formation       ....       4.059 sec  ( 80.8%)
  Startup                   ....       0.012 sec  (  0.3% of F)
  Split-RI-J                ....       0.607 sec  ( 15.0% of F)
  XC integration            ....       3.250 sec  ( 80.1% of F)
    XC Preparation          ....       0.000 sec  (  0.0% of XC)
    Basis function eval.    ....       0.772 sec  ( 23.7% of XC)
    Density eval.           ....       0.701 sec  ( 21.6% of XC)
    XC-Functional eval.     ....       0.096 sec  (  3.0% of XC)
    XC-Potential eval.      ....       0.735 sec  ( 22.6% of XC)
Diagonalization             ....       0.000 sec  (  0.0%)
Density matrix formation    ....       0.038 sec  (  0.8%)
Total Energy calculation    ....       0.023 sec  (  0.5%)
Population analysis         ....       0.363 sec  (  7.2%)
Orbital Transformation      ....       0.037 sec  (  0.7%)
Orbital Orthonormalization  ....       0.000 sec  (  0.0%)
DIIS solution               ....       0.248 sec  (  4.9%)
SOSCF solution              ....       0.079 sec  (  1.6%)
Finished LeanSCF after   5.0 sec

Maximum memory used throughout the entire LEANSCF-calculation: 40.1 MB


           ************************************************************
           *        Program running with 16 parallel MPI-processes    *
           *              working on a common directory               *
           ************************************************************

------------------------------------------------------------------------------
                         ORCA PROPERTY INTEGRAL CALCULATIONS
------------------------------------------------------------------------------

GBWName                                   ... m1_00_Vitamin_C-GFN2_00-B97-3C-TZ.gbw
Number of atoms                           ...     20
Number of basis functions                 ...    282
Max core memory                           ...   6000 MB

Dipole integrals                          ... YES
Quadrupole integrals                      ...  NO
Linear momentum integrals                 ...  NO
Angular momentum integrals                ...  NO
Higher moments length integrals           ...  NO
Higher moments velocity integrals         ...  NO
Kinetic energy integrals                  ...  NO
GIAO right hand sides                     ...  NO
GIAO dipole derivative integrals          ...  NO
SOC integrals                             ...  NO
EPR diamagnetic integrals (GIAO)          ...  NO
EPR gauge integrals                       ...  NO
Field gradient integrals                  ...  NO (   0 nuclei)
Spin-dipole/Fermi contact integrals       ...  NO (   0 nuclei)
Contact density integrals                 ...  NO (   0 nuclei)
Nucleus-orbit integrals                   ...  NO (   0 nuclei)
Geometric perturbations                   ...  NO (  20 nuclei)

Choice of electric origin   ... Center of mass
Position of electric origin ... ( -2.9300,  1.2417, -3.3269) 
Choice of magnetic origin   ... GIAO
Position of magnetic origin ... (  0.0000,  0.0000,  0.0000) 

Calculating integrals                     ... Electric Dipole (Length)     done (  0.0 sec)

Property integrals calculated in   0.0 sec

Maximum memory used throughout the entire PROPINT-calculation: 16.0 MB


-------------------------------------------------------------------------------
                          DFT DISPERSION CORRECTION                            
                                                                               
                              DFTD3 V3.1  Rev 1                                
                          USING Becke-Johnson damping                          
-------------------------------------------------------------------------------
The B97-3c composite method is recognized
Using three-body term ABC
Active option DFTDOPT                   ...         4   

molecular C6(AA) [au] = 3733.116560 


            DFT-D V3
 parameters
 s6 scaling factor         :     1.0000 
 a1 scaling factor         :     0.3700 
 s8 scaling factor         :     1.5000 
 a2 scaling factor         :     4.1000 
 Damping factor alpha9(ATM):    16.0000 
 ad hoc parameters k1-k3   :    16.0000     1.3333    -4.0000 

 Edisp/kcal,au: -28.284782708563  -0.045074665580 
 E6   /kcal   : -14.532479000 
 E8   /kcal   : -13.810577331 
 E6(ABC)      :   0.058273622 
 % E8         :  48.826881484 
 % E6(ABC)    :  -0.206024641 

-------------------------   ----------------
Dispersion correction           -0.045074666
-------------------------   ----------------

------------------   -----------------
SRB correction            -0.057656256
------------------   -----------------

-------------------------   --------------------
FINAL SINGLE POINT ENERGY      -684.499580898107
-------------------------   --------------------



           ************************************************************
           *        Program running with 16 parallel MPI-processes    *
           *              working on a common directory               *
           ************************************************************
------------------------------------------------------------------------------
                         ORCA SCF GRADIENT CALCULATION
------------------------------------------------------------------------------

Nuc. rep. gradient        (SHARK) ... done (  0.0 sec)
HCore & Overlap gradient  (SHARK) ... done (  0.0 sec)
Split-RIJ-J gradient      (SHARK) ... done (  0.1 sec)
XC gradient                       ... done (  1.5 sec)
Dispersion correction             ... done (  0.0 sec)

-------------------
DISPERSION GRADIENT
-------------------

   1   O   :   -0.000307828   -0.000413398   -0.000689160
   2   O   :   -0.000123625    0.000930348    0.000761337
   3   O   :    0.001011647    0.000055712    0.000068997
   4   O   :   -0.000811469   -0.000162420    0.000380016
   5   O   :    0.000290558    0.000499762   -0.000592904
   6   O   :   -0.000701599    0.000046598   -0.000621054
   7   C   :    0.000433151   -0.000510296   -0.000106272
   8   C   :    0.000013670    0.000015333    0.000946923
   9   C   :    0.000929448   -0.000092114   -0.000273803
  10   C   :   -0.000419042   -0.000302638    0.000776792
  11   C   :    0.000274353    0.000331432   -0.000893460
  12   C   :   -0.000465482    0.000018693   -0.001103784
  13   H   :    0.000254301   -0.000637328   -0.000026092
  14   H   :    0.000295951    0.000040011    0.000523102
  15   H   :   -0.000143586   -0.000418749    0.000340959
  16   H   :   -0.000132031   -0.000121457    0.000435649
  17   H   :   -0.000320046    0.000558010    0.000297436
  18   H   :    0.000483684    0.000101334    0.000070982
  19   H   :   -0.000656067   -0.000215382    0.000038176
  20   H   :    0.000094012    0.000276549   -0.000333843

Difference to translation invariance:
           :   -0.0000000000    0.0000000000   -0.0000000000

Difference to rotation invariance:
           :   -0.0000000000    0.0000000000    0.0000000000

Norm of the Dispersion gradient    ...    0.0037437505
RMS gradient                       ...    0.0004833161
MAX gradient                       ...    0.0011037836
SRB correction                   ... done

------------------
CARTESIAN GRADIENT
------------------

   1   O   :    0.011185150    0.008571001   -0.002347945
   2   O   :    0.000985629   -0.009436323   -0.000670672
   3   O   :   -0.001877083   -0.000191961   -0.002973826
   4   O   :    0.012877219   -0.002206322    0.003322624
   5   O   :    0.000069874    0.003196464   -0.005643741
   6   O   :    0.007289575   -0.001829439    0.006651555
   7   C   :   -0.017743074   -0.008106096   -0.012055492
   8   C   :    0.006047469    0.010274251    0.004422239
   9   C   :    0.008887863    0.000134710    0.011047203
  10   C   :   -0.012554274   -0.000555301   -0.002537050
  11   C   :    0.003179157    0.004196544   -0.000174956
  12   C   :   -0.017790204   -0.008721522    0.000759362
  13   H   :    0.000588520   -0.001927344    0.001267063
  14   H   :    0.002164906    0.001985082    0.000580265
  15   H   :   -0.000257158   -0.000882065   -0.001646280
  16   H   :   -0.001337842    0.002130573    0.002166113
  17   H   :   -0.002605241    0.002171346   -0.000340347
  18   H   :    0.000487310    0.000594194   -0.000188846
  19   H   :   -0.000960682   -0.000029841   -0.001544953
  20   H   :    0.001362885    0.000632046   -0.000092315

Difference to translation invariance:
           :   -0.0000000000   -0.0000000000   -0.0000000000

Difference to rotation invariance:
           :   -0.0000076603    0.0000791105   -0.0000598390

Norm of the Cartesian gradient     ...    0.0463934110
RMS gradient                       ...    0.0059893636
MAX gradient                       ...    0.0177902036

-------
TIMINGS
-------

Total SCF gradient time     ....        1.698 sec

Densities                   ....       0.001 sec  (  0.1%)
One electron gradient       ....       0.032 sec  (  1.9%)
RI-J Coulomb gradient       ....       0.116 sec  (  6.8%)
XC gradient                 ....       1.489 sec  ( 87.7%)

Maximum memory used throughout the entire SCFGRAD-calculation: 48.4 MB
------------------------------------------------------------------------------
                         ORCA GEOMETRY RELAXATION STEP
------------------------------------------------------------------------------

Reading the OPT-File                    .... done
Getting information on internals        .... done
Copying old internal coords+grads       .... done
Making the new internal coordinates     .... (2022 redundants) done
Validating the new internal coordinates .... (2022 redundants) done
Calculating the B-matrix                .... done
Calculating the G,G- and P matrices     .... done
Transforming gradient to internals      .... done
Projecting the internal gradient        .... done
Number of atoms                         ....  20
Number of internal coordinates          ....  94
Current Energy                          ....  -684.499580898 Eh
Current gradient norm                   ....     0.046393411 Eh/bohr
Maximum allowed component of the step   ....  0.300
Current trust radius                    ....  0.300
Evaluating the initial hessian          ....  (Almloef) done
Projecting the Hessian                  .... done
Forming the augmented Hessian           .... done
Diagonalizing the augmented Hessian     .... done
Last element of RFO vector              ....  0.982123419
Lowest eigenvalues of augmented Hessian:
 -0.002548902  0.008707206  0.009652903  0.017872829  0.018695625
Length of the computed step             ....  0.191664424
The final length of the internal step   ....  0.191664424
Converting the step to Cartesian space:
 Initial RMS(Int)=    0.0197686759
Transforming coordinates:
 Iter   0:  RMS(Cart)=    0.0547492995 RMS(Int)=    0.6464461761
 Iter   5:  RMS(Cart)=    0.0000000173 RMS(Int)=    0.0000000107
done
Storing new coordinates                 .... done

                                .--------------------.
          ----------------------|Geometry convergence|-------------------------
          Item                value                   Tolerance       Converged
          ---------------------------------------------------------------------
          RMS gradient        0.0031149051            0.0000300000      NO
          MAX gradient        0.0111837344            0.0001000000      NO
          RMS step            0.0197686759            0.0020000000      NO
          MAX step            0.0823660825            0.0040000000      NO
          ........................................................
          Max(Bonds)      0.0436      Max(Angles)    1.29
          Max(Dihed)        3.67      Max(Improp)    0.00
          ---------------------------------------------------------------------

The optimization has not yet converged - more geometry cycles are needed


    ---------------------------------------------------------------------------
                         Redundant Internal Coordinates
                            (Angstroem and degrees)

        Definition                    Value    dE/dq     Step     New-Value
    ----------------------------------------------------------------------------
     1. B(C   6,O   0)                1.4187 -0.008724  0.0095    1.4282   
     2. B(C   7,O   1)                1.3947 -0.006016  0.0060    1.4008   
     3. B(C   7,C   6)                1.5594  0.004632 -0.0068    1.5527   
     4. B(C   8,O   2)                1.3394 -0.002453  0.0019    1.3413   
     5. B(C   8,C   6)                1.5005  0.005178 -0.0068    1.4937   
     6. B(C   9,C   7)                1.5410  0.004009 -0.0048    1.5362   
     7. B(C   9,O   3)                1.4019 -0.011184  0.0112    1.4131   
     8. B(C  10,C   8)                1.3450  0.006810 -0.0053    1.3397   
     9. B(C  10,O   4)                1.3591  0.006794 -0.0057    1.3534   
    10. B(C  11,C  10)                1.4614  0.007511 -0.0084    1.4530   
    11. B(C  11,O   5)                1.2023 -0.010010  0.0047    1.2071   
    12. B(C  11,O   0)                1.3623 -0.009938  0.0089    1.3712   
    13. B(H  12,C   6)                1.0954  0.002135 -0.0032    1.0922   
    14. B(H  13,C   7)                1.0949  0.002044 -0.0030    1.0918   
    15. B(H  14,C   9)                1.0969  0.000924 -0.0014    1.0955   
    16. B(H  15,C   9)                1.0927  0.002728 -0.0040    1.0887   
    17. B(H  16,O   3)                2.1123 -0.000602  0.0097    2.1220   
    18. B(H  16,O   1)                0.9725  0.002380 -0.0027    0.9698   
    19. B(H  17,O   2)                0.9671  0.000752 -0.0008    0.9663   
    20. B(H  18,O   0)                2.1044 -0.001289  0.0436    2.1480   
    21. B(H  18,O   3)                0.9685  0.000673 -0.0010    0.9675   
    22. B(H  19,O   4)                0.9680 -0.000763  0.0008    0.9688   
    23. A(C   6,O   0,C  11)          110.13  0.005375   -0.58    109.55   
    24. A(C   7,O   1,H  16)          106.99  0.004905   -0.67    106.32   
    25. A(C   8,O   2,H  17)          109.03  0.000349   -0.05    108.98   
    26. A(C   9,O   3,H  18)          108.82  0.003329   -0.45    108.37   
    27. A(C  10,O   4,H  19)          107.34  0.002372   -0.37    106.97   
    28. A(O   0,C   6,C   8)          104.61  0.001191   -0.10    104.51   
    29. A(C   7,C   6,C   8)          110.95 -0.004841    1.29    112.24   
    30. A(O   0,C   6,H  12)          109.07  0.000357   -0.55    108.52   
    31. A(C   8,C   6,H  12)          112.57  0.001153   -0.36    112.21   
    32. A(O   0,C   6,C   7)          110.31  0.001073   -0.02    110.29   
    33. A(C   7,C   6,H  12)          109.23  0.001150   -0.27    108.96   
    34. A(C   6,C   7,C   9)          110.26 -0.000565    0.48    110.73   
    35. A(C   9,C   7,H  13)          111.13  0.002611   -1.04    110.10   
    36. A(C   6,C   7,H  13)          106.91  0.001138   -0.76    106.15   
    37. A(O   1,C   7,H  13)          108.11 -0.001355   -0.04    108.07   
    38. A(O   1,C   7,C   6)          110.62 -0.002060    0.79    111.41   
    39. A(O   1,C   7,C   9)          109.76  0.000223    0.53    110.29   
    40. A(O   2,C   8,C   6)          120.33  0.004457   -0.56    119.77   
    41. A(C   6,C   8,C  10)          108.38 -0.003541    0.39    108.77   
    42. A(O   2,C   8,C  10)          131.25 -0.000900    0.16    131.41   
    43. A(H  14,C   9,H  15)          109.07  0.002365   -0.73    108.34   
    44. A(O   3,C   9,H  15)          105.78 -0.001767    0.14    105.93   
    45. A(C   7,C   9,H  14)          110.36  0.001171   -0.15    110.21   
    46. A(O   3,C   9,H  14)          111.97 -0.000221    0.18    112.15   
    47. A(O   3,C   9,C   7)          110.37 -0.002245    0.73    111.10   
    48. A(C   7,C   9,H  15)          109.15  0.000672   -0.20    108.95   
    49. A(C   8,C  10,C  11)          108.37 -0.003231    0.33    108.70   
    50. A(O   4,C  10,C  11)          122.70  0.000562   -0.02    122.68   
    51. A(O   4,C  10,C   8)          128.92  0.002657   -0.29    128.63   
    52. A(O   0,C  11,O   5)          123.79  0.000671   -0.10    123.69   
    53. A(O   5,C  11,C  10)          128.02 -0.000983    0.10    128.12   
    54. A(O   0,C  11,C  10)          108.18  0.000320   -0.00    108.18   
    55. D(C   7,C   6,O   0,C  11)    113.64 -0.003632    1.72    115.36   
    56. D(C   8,C   6,O   0,C  11)     -5.73  0.000860    0.26     -5.46   
    57. D(H  12,C   6,O   0,C  11)   -126.38 -0.001336    1.02   -125.36   
    58. D(C   9,C   7,C   6,H  12)    -59.35 -0.001108   -1.29    -60.64   
    59. D(O   1,C   7,C   6,C   8)     54.39  0.001413   -3.04     51.35   
    60. D(C   9,C   7,C   6,C   8)    175.98 -0.000053   -1.53    174.45   
    61. D(C   9,C   7,O   1,H  16)    -28.91  0.001427   -0.80    -29.71   
    62. D(H  13,C   7,O   1,H  16)   -150.28 -0.001055    0.18   -150.10   
    63. D(C   6,C   7,O   1,H  16)     92.97 -0.000486    0.68     93.65   
    64. D(O   1,C   7,C   6,O   0)    -61.06  0.002178   -3.67    -64.73   
    65. D(O   1,C   7,C   6,H  12)    179.06  0.000358   -2.80    176.26   
    66. D(C   9,C   7,C   6,O   0)     60.53  0.000712   -2.15     58.37   
    67. D(O   2,C   8,C   6,O   0)   -176.73 -0.000343   -0.90   -177.63   
    68. D(C  10,C   8,O   2,H  17)      4.00  0.000377   -0.42      3.57   
    69. D(C   6,C   8,O   2,H  17)   -173.53 -0.000097   -0.02   -173.55   
    70. D(C  10,C   8,C   6,C   7)   -113.72 -0.000230   -1.15   -114.86   
    71. D(C  10,C   8,C   6,O   0)      5.23 -0.000732   -0.58      4.65   
[...]
     27       0.001685   0.005701  -0.000796  -0.000051   0.000529  -0.000004
     28      -0.014129  -0.032513   0.000980  -0.000017  -0.000703  -0.000027
     29      -0.002155  -0.082687  -0.000225  -0.000045  -0.002569  -0.000002
     30      -0.000094   0.000070   0.000083   0.001493  -0.000173   0.001378
     31       0.000310   0.000017   0.000100  -0.000631  -0.000034   0.000782
     32      -0.000685   0.000041  -0.000069   0.001875  -0.000013  -0.000163
     33      -0.000267   0.000018  -0.000203  -0.001113   0.000106  -0.000908
     34       0.000461  -0.000165  -0.000059   0.000683   0.000428  -0.000399
     35      -0.000955   0.000264  -0.000134  -0.001724  -0.000548   0.000016
     36      -0.188817  -0.002381  -0.000978   0.000542  -0.001043   0.000359
     37       0.588806   0.006168   0.002570   0.000876   0.001394  -0.000589
     38      -0.039347   0.000189   0.001575   0.000185  -0.000318   0.000200
     39      -0.616190   0.055674  -0.009006  -0.000117   0.000848  -0.000493
     40       0.085430  -0.004502   0.003786   0.000105   0.000989  -0.000000
     41      -0.438708   0.038442  -0.008255   0.000103  -0.001554  -0.000486
     42      -0.017368  -0.022938   0.004680   0.000095   0.004293   0.000029
     43       0.168845   0.220524  -0.003685  -0.000025  -0.002302   0.000068
     44       0.024538   0.024209   0.001028   0.000064   0.001786   0.000057
     45      -0.000116  -0.038277   0.000315   0.000186   0.000241   0.000079
     46       0.000956   0.168839  -0.000869   0.000054   0.003985   0.000026
     47       0.005564   0.952482   0.000115  -0.000048   0.018521  -0.000065
     48       0.011189   0.000040  -0.984985  -0.012396  -0.102544  -0.002921
     49       0.006800  -0.000487   0.093284   0.001195   0.005568   0.000369
     50       0.005515  -0.002751  -0.079374  -0.001031  -0.007679  -0.000042
     51      -0.000933   0.000184  -0.000871  -0.006724  -0.005230   0.528875
     52      -0.000090   0.000133  -0.001233  -0.008348  -0.006320   0.644625
     53      -0.000752  -0.000239   0.000971   0.006960   0.005367  -0.548263
     54      -0.000893   0.008231  -0.004524  -0.000111   0.033952   0.000017
     55      -0.001262  -0.006893  -0.020752   0.001130   0.205962   0.001865
     56      -0.000049  -0.018235  -0.100764   0.005109   0.970269   0.009400
     57       0.000584  -0.000161   0.008072  -0.674145   0.004725  -0.008426
     58      -0.000132  -0.000086  -0.002327   0.191978  -0.000921   0.002308
     59       0.000118  -0.000059   0.008505  -0.710258   0.004536  -0.009342


-----------
IR SPECTRUM
-----------

 Mode   freq       eps      Int      T**2         TX        TY        TZ
       cm**-1   L/(mol*cm) km/mol    a.u.
----------------------------------------------------------------------------
  6:     59.20   0.000162    0.82  0.000854  ( 0.026902 -0.010400  0.004669)
  7:     77.15   0.000132    0.67  0.000534  (-0.004900 -0.006482 -0.021627)
  8:    117.56   0.000766    3.87  0.002034  (-0.027811  0.003520  0.035333)
  9:    146.81   0.000444    2.24  0.000943  (-0.021831 -0.006255  0.020664)
 10:    159.52   0.001469    7.42  0.002873  ( 0.037656  0.037714 -0.005752)
 11:    232.19   0.001766    8.92  0.002373  ( 0.004767  0.030831 -0.037415)
 12:    258.44   0.000812    4.10  0.000980  ( 0.028950  0.000966 -0.011888)
 13:    285.03   0.000114    0.58  0.000125  ( 0.006747  0.008182 -0.003549)
 14:    307.37   0.002592   13.10  0.002631  (-0.020865 -0.039430  0.025319)
 15:    324.67   0.000811    4.10  0.000780  ( 0.024850 -0.012208 -0.003601)
 16:    368.11   0.000188    0.95  0.000160  (-0.008014 -0.009168  0.003354)
 17:    377.76   0.034481  174.25  0.028485  ( 0.061260 -0.128316 -0.090923)
 18:    420.22   0.002820   14.25  0.002094  ( 0.030665 -0.029543 -0.016762)
 19:    437.62   0.012900   65.19  0.009199  (-0.023754 -0.070615 -0.060403)
 20:    523.80   0.001462    7.39  0.000871  ( 0.016413  0.023801  0.005922)
 21:    563.63   0.000279    1.41  0.000154  ( 0.002355 -0.012189  0.000282)
 22:    584.51   0.006412   32.40  0.003423  (-0.033736 -0.035899  0.031564)
 23:    621.34   0.037920  191.63  0.019045  (-0.082382 -0.066855  0.088254)
 24:    626.85   0.000608    3.07  0.000302  (-0.004055  0.003807 -0.016478)
 25:    686.49   0.000999    5.05  0.000454  ( 0.005767 -0.006310  0.019515)
 26:    737.32   0.002213   11.19  0.000937  ( 0.003107 -0.028953 -0.009425)
 27:    770.66   0.000514    2.60  0.000208  (-0.002923  0.001271 -0.014070)
 28:    823.85   0.002151   10.87  0.000815  ( 0.013651  0.022217  0.011613)
 29:    829.51   0.004997   25.26  0.001880  ( 0.032041 -0.029036 -0.003217)
 30:    924.41   0.002256   11.40  0.000762  (-0.001505 -0.022507 -0.015897)
 31:    955.66   0.005742   29.02  0.001875  (-0.014322 -0.023788  0.033227)
 32:   1032.28   0.008825   44.60  0.002668  (-0.038785  0.001257 -0.034089)
 33:   1037.93   0.009299   46.99  0.002796  ( 0.014748 -0.011536  0.049450)
 34:   1074.73   0.005604   28.32  0.001627  ( 0.040287 -0.000986  0.001814)
 35:   1106.01   0.034701  175.37  0.009791  (-0.031549 -0.083032  0.043605)
 36:   1106.85   0.033707  170.34  0.009503  (-0.086342  0.003766  0.045103)
 37:   1169.68   0.019248   97.27  0.005135  (-0.017913  0.031377 -0.061886)
 38:   1221.23   0.004155   21.00  0.001062  ( 0.025143  0.020501  0.003036)
 39:   1240.10   0.002231   11.27  0.000561  ( 0.004508  0.019390  0.012850)
 40:   1303.30   0.015388   77.77  0.003685  (-0.034116 -0.038035  0.032773)
 41:   1307.51   0.008039   40.63  0.001919  ( 0.017334 -0.019728  0.035058)
 42:   1330.27   0.036003  181.95  0.008446  ( 0.077410  0.000713  0.049529)
 43:   1365.03   0.001551    7.84  0.000355  (-0.011540 -0.011250  0.009738)
 44:   1372.17   0.003043   15.38  0.000692  (-0.010571 -0.014526  0.019214)
 45:   1384.73   0.003179   16.06  0.000716  ( 0.005301  0.015322 -0.021296)
 46:   1425.85   0.010222   51.66  0.002237  ( 0.029899  0.035336 -0.009725)
 47:   1441.09   0.010217   51.63  0.002213  (-0.023964  0.039146  0.010290)
 48:   1457.20   0.006466   32.68  0.001385  ( 0.012056 -0.012636  0.032858)
 49:   1498.61   0.001314    6.64  0.000274  ( 0.006985  0.011959 -0.009048)
 50:   1748.35   0.091118  460.47  0.016264  ( 0.105451  0.003644  0.071627)
 51:   1807.70   0.054768  276.78  0.009455  ( 0.034830 -0.033028  0.084562)
 52:   2967.91   0.008081   40.84  0.000850  (-0.005914  0.027464 -0.007774)
 53:   2993.47   0.001114    5.63  0.000116  ( 0.003771  0.009711 -0.002766)
 54:   3005.53   0.013306   67.25  0.001382  ( 0.020876 -0.025656  0.016958)
 55:   3065.86   0.006083   30.74  0.000619  ( 0.000752 -0.005169 -0.024328)
 56:   3641.64   0.011714   59.20  0.001004  (-0.031358 -0.002672  0.003657)
 57:   3676.77   0.015728   79.48  0.001335  (-0.021101  0.009208 -0.028369)
 58:   3694.91   0.012955   65.47  0.001094  (-0.005697  0.000091  0.032584)
 59:   3726.28   0.014867   75.13  0.001245  ( 0.030607  0.017032 -0.004263)

* The epsilon (eps) is given for a Dirac delta lineshape.
** The dipole moment derivative (T) already includes vibrational overlap.

The first frequency considered to be a vibration is 6
The total number of vibrations considered is 54


--------------------------
THERMOCHEMISTRY AT 298.15K
--------------------------

Temperature         ...   298.15 K
Pressure            ...     1.00 atm
Total Mass          ...   176.12 AMU
Quasi RRHO          ...     True
Cut-Off Frequency   ...     1.00 cm^-1

Throughout the following assumptions are being made:
  (1) The electronic state is orbitally nondegenerate
  (2) There are no thermally accessible electronically excited states
  (3) Hindered rotations indicated by low frequency modes are not
      treated as such but are treated as vibrations and this may
      cause some error
  (4) All equations used are the standard statistical mechanics
      equations for an ideal gas
  (5) All vibrations are strictly harmonic

freq.      59.20  E(vib)   ...       0.51 
freq.      77.15  E(vib)   ...       0.49 
freq.     117.56  E(vib)   ...       0.44 
freq.     146.81  E(vib)   ...       0.41 
freq.     159.52  E(vib)   ...       0.39 
freq.     232.19  E(vib)   ...       0.32 
freq.     258.44  E(vib)   ...       0.30 
freq.     285.03  E(vib)   ...       0.28 
freq.     307.37  E(vib)   ...       0.26 
freq.     324.67  E(vib)   ...       0.24 
freq.     368.11  E(vib)   ...       0.21 
freq.     377.76  E(vib)   ...       0.21 
freq.     420.22  E(vib)   ...       0.18 
freq.     437.62  E(vib)   ...       0.17 
freq.     523.80  E(vib)   ...       0.13 
freq.     563.63  E(vib)   ...       0.11 
freq.     584.51  E(vib)   ...       0.11 
freq.     621.34  E(vib)   ...       0.09 
freq.     626.85  E(vib)   ...       0.09 
freq.     686.49  E(vib)   ...       0.07 
freq.     737.32  E(vib)   ...       0.06 
freq.     770.66  E(vib)   ...       0.05 
freq.     823.85  E(vib)   ...       0.05 
freq.     829.51  E(vib)   ...       0.04 
freq.     924.41  E(vib)   ...       0.03 
freq.     955.66  E(vib)   ...       0.03 
freq.    1032.28  E(vib)   ...       0.02 
freq.    1037.93  E(vib)   ...       0.02 
freq.    1074.73  E(vib)   ...       0.02 
freq.    1106.01  E(vib)   ...       0.02 
freq.    1106.85  E(vib)   ...       0.02 
freq.    1169.68  E(vib)   ...       0.01 
freq.    1221.23  E(vib)   ...       0.01 
freq.    1240.10  E(vib)   ...       0.01 
freq.    1303.30  E(vib)   ...       0.01 
freq.    1307.51  E(vib)   ...       0.01 
freq.    1330.27  E(vib)   ...       0.01 
freq.    1365.03  E(vib)   ...       0.01 
freq.    1372.17  E(vib)   ...       0.01 
freq.    1384.73  E(vib)   ...       0.00 
freq.    1425.85  E(vib)   ...       0.00 
freq.    1441.09  E(vib)   ...       0.00 
freq.    1457.20  E(vib)   ...       0.00 
freq.    1498.61  E(vib)   ...       0.00 
freq.    1748.35  E(vib)   ...       0.00 
freq.    1807.70  E(vib)   ...       0.00 
freq.    2967.91  E(vib)   ...       0.00 
freq.    2993.47  E(vib)   ...       0.00 
freq.    3005.53  E(vib)   ...       0.00 
freq.    3065.86  E(vib)   ...       0.00 
freq.    3641.64  E(vib)   ...       0.00 
freq.    3676.77  E(vib)   ...       0.00 
freq.    3694.91  E(vib)   ...       0.00 
freq.    3726.28  E(vib)   ...       0.00 

------------
INNER ENERGY
------------

The inner energy is: U= E(el) + E(ZPE) + E(vib) + E(rot) + E(trans)
    E(el)   - is the total energy from the electronic structure calculation
              = E(kin-el) + E(nuc-el) + E(el-el) + E(nuc-nuc)
    E(ZPE)  - the the zero temperature vibrational energy from the frequency calculation
    E(vib)  - the the finite temperature correction to E(ZPE) due to population
              of excited vibrational states
    E(rot)  - is the rotational thermal energy
    E(trans)- is the translational thermal energy

Summary of contributions to the inner energy U:
Electronic energy                ...   -684.50204590 Eh
Zero point energy                ...      0.14904375 Eh      93.53 kcal/mol
Thermal vibrational correction   ...      0.00870094 Eh       5.46 kcal/mol
Thermal rotational correction    ...      0.00141627 Eh       0.89 kcal/mol
Thermal translational correction ...      0.00141627 Eh       0.89 kcal/mol
-----------------------------------------------------------------------
Total thermal energy                   -684.34146867 Eh


Summary of corrections to the electronic energy:
(perhaps to be used in another calculation)
Total thermal correction                  0.01153348 Eh       7.24 kcal/mol
Non-thermal (ZPE) correction              0.14904375 Eh      93.53 kcal/mol
-----------------------------------------------------------------------
Total correction                          0.16057723 Eh     100.76 kcal/mol


--------
ENTHALPY
--------

The enthalpy is H = U + kB*T
                kB is Boltzmann's constant
Total thermal energy              ...   -684.34146867 Eh 
Thermal Enthalpy correction       ...      0.00094421 Eh       0.59 kcal/mol
-----------------------------------------------------------------------
Total Enthalpy                    ...   -684.34052446 Eh


Note: Only C1 symmetry has been detected, increase convergence thresholds 
      if your molecule has a higher symmetry. Symmetry factor of 1.0 is   
      used for the rotational entropy correction. 
 

Note: Rotational entropy computed according to Herzberg 
Infrared and Raman Spectra, Chapter V,1, Van Nostrand Reinhold, 1945 
Point Group:  C1, Symmetry Number:   1  
Rotational constants in cm-1:     0.048447     0.025414     0.019228 

Vibrational entropy computed according to the QRRHO of S. Grimme
Chem.Eur.J. 2012 18 9955 using a reference frequency of 100.0 cm-1


-------
ENTROPY
-------

The entropy contributions are T*S = T*(S(el)+S(vib)+S(rot)+S(trans))
     S(el)   - electronic entropy
     S(vib)  - vibrational entropy
     S(rot)  - rotational entropy
     S(trans)- translational entropy
The entropies will be listed as multiplied by the temperature to get
units of energy

Electronic entropy                ...      0.00000000 Eh      0.00 kcal/mol
Vibrational entropy               ...      0.01479627 Eh      9.28 kcal/mol
Rotational entropy                ...      0.01453909 Eh      9.12 kcal/mol
Translational entropy             ...      0.01967288 Eh     12.34 kcal/mol
-----------------------------------------------------------------------
Final entropy term                ...      0.04900823 Eh     30.75 kcal/mol

In case the symmetry of your molecule has not been determined correctly
or in case you have a reason to use a different symmetry number we print 
out the resulting rotational entropy values for sn=1,12:

 non-linear molecules -----------------------------------
|  sn= 1 | S(rot)=       0.01453909 Eh      9.12 kcal/mol|
|  sn= 2 | S(rot)=       0.01388463 Eh      8.71 kcal/mol|
|  sn= 3 | S(rot)=       0.01350180 Eh      8.47 kcal/mol|
|  sn= 4 | S(rot)=       0.01323018 Eh      8.30 kcal/mol|
|  sn= 5 | S(rot)=       0.01301949 Eh      8.17 kcal/mol|
|  sn= 6 | S(rot)=       0.01284734 Eh      8.06 kcal/mol|
|  sn= 7 | S(rot)=       0.01270180 Eh      7.97 kcal/mol|
|  sn= 8 | S(rot)=       0.01257572 Eh      7.89 kcal/mol|
|  sn= 9 | S(rot)=       0.01246451 Eh      7.82 kcal/mol|
|  sn=10 | S(rot)=       0.01236503 Eh      7.76 kcal/mol|
|  sn=11 | S(rot)=       0.01227504 Eh      7.70 kcal/mol|
|  sn=12 | S(rot)=       0.01219289 Eh      7.65 kcal/mol|
 linear molecules ---------------------------------------
|  Dinfh | S(rot)=       0.00905661 Eh      5.68 kcal/mol|
|  Cinfv | S(rot)=       0.00971107 Eh      6.09 kcal/mol|
 --------------------------------------------------------


-------------------
GIBBS FREE ENERGY
-------------------

The Gibbs free energy is G = H - T*S

Total enthalpy                    ...   -684.34052446 Eh 
Total entropy correction          ...     -0.04900823 Eh    -30.75 kcal/mol
-----------------------------------------------------------------------
Final Gibbs free energy         ...   -684.38953269 Eh

For completeness - the Gibbs free energy minus the electronic energy
G-E(el)                           ...      0.11251321 Eh     70.60 kcal/mol


Maximum memory used throughout the entire PROP-calculation: 66.8 MB

--------------------------------
SUGGESTED CITATIONS FOR THIS RUN
--------------------------------

Below you find a list of papers that are relevant to this ORCA run
We neither can nor want to force you to cite these papers, but we appreciate if you do
You receive ORCA, which is the product of decades of hard work by many enthusiastic individuals, for free
The only thing we kindly ask in return is that you cite our papers,
We deeply appreciate it, if you show your appreciation for ORCA by not just citing the generic ORCA reference.

Please note that relegating all ORCA citations to the supporting information does *not* help us.
SI sections are not indexed - citations you put there will not count into any citation statistics
But we need these citations in order to attract the funding resources that allow us to do what we are doing

Therefore, if you are a happy ORCA user, please consider citing a few of the papers listed below in the main body of your paper

In addition to the list printed below, the program has created the file m1_00_Vitamin_C-GFN2_00-B97-3C-TZ.bibtex that contains the list in bibtex format
You can import this file easily into all common literature databanks and citation aid programs


List of essential papers. We consider these as the minimum necessary citations

  1. Neese,F.
     Software update: the ORCA program system, version 5.0
     WIRES Comput. Molec. Sci., 2022 12(1)e1606
     doi.org/10.1002/wcms.1606

List of papers to cite with high priority. The work reported in these papers was absolutely
necessary for this run to complete.
Our perspective: the developers of density functionals and basis sets usually get cited in chemistry papers
Good! But without the algorithms to do something with them, the functionals or basis sets would not do anything.
Hence, in our opinion, the algorithm design and method developments papers are equally worthy of getting cited

  1. Neese,F.
     An improvement of the resolution of the identity approximation for the formation of the Coulomb matrix
     J. Comp. Chem., 2003 24(14)1740-1747
     doi.org/10.1002/jcc.10318
  2. Bykov,D.; Petrenko,T.; Izsak,R.; Kossmann,S.; Becker,U.; Valeev,E.; Neese,F.
     Efficient implementation of the analytic second derivatives of Hartree-Fock and hybrid DFT energies: a detailed analysis of different approximations
     Molec. Phys., 2015 113 1961-1977
     doi.org/10.1080/00268976.2015.1025114
  3. Neese,F.
     The SHARK Integral Generation and Digestion System
     J. Comp. Chem., 2022  1-16
     doi.org/10.1002/jcc.26942
  4. Grimme,S.; Antony,J.; Ehrlich,S.; Krieg,H.
     A consistent and accurate ab initio parametrization of density functional dispersion correction (DFT-D) for the 94 elements H-Pu
     J. Chem. Phys., 2010 132 154104
     doi.org/10.1063/1.3382344
  5. Grimme,S.; Ehrlich,S.; Goerigk,L.
     Effect of the damping function in dispersion corrected density functional theory
     J. Comput. Chem., 2011 32(7)1456-1465
     doi.org/10.1002/jcc.21759

List of suggested additional citations. These are papers that are important in the 'surrounding' of 
of this run, or papers that preceded the highly important papers. If you like your results we are grateful for a citation.

  1. Neese,F.
     The ORCA program system
     WIRES Comput. Molec. Sci., 2012 2(1)73-78
     doi.org/10.1002/wcms.81
  2. Neese,F.
     Software update: the ORCA program system, version 4.0
     WIRES Comput. Molec. Sci., 2018 8(1)1-6
     doi.org/10.1002/wcms.1327
  3. Neese,F.; Wennmohs,F.; Becker,U.; Riplinger,C.
     The ORCA quantum chemistry program package
     J. Chem. Phys., 2020 152 Art. No. L224108
     doi.org/10.1063/5.0004608

List of optional additional citations

  1. Neese,F.
     Approximate second-order SCF convergence for spin unrestricted wavefunctions
     Chem. Phys. Lett., 2000 325(1-3)93-98
     doi.org/10.1016/s0009-2614(00)00662-x

Timings for individual modules:

Sum of individual times          ...      131.196 sec (=   2.187 min)
Startup calculation              ...       18.122 sec (=   0.302 min)  13.8 %
SCF iterations                   ...       29.492 sec (=   0.492 min)  22.5 %
Property integrals               ...       32.250 sec (=   0.537 min)  24.6 %
SCF Response                     ...       22.137 sec (=   0.369 min)  16.9 %
Property calculations            ...       13.378 sec (=   0.223 min)  10.2 %
SCF Gradient evaluation          ...       15.787 sec (=   0.263 min)  12.0 %
Geometry relaxation              ...        0.030 sec (=   0.001 min)   0.0 %
                             ****ORCA TERMINATED NORMALLY****
TOTAL RUN TIME: 0 days 0 hours 2 minutes 12 seconds 947 msec
