
                                 *****************
                                 * O   R   C   A *
                                 *****************

                                            #,                                       
                                            ###                                      
                                            ####                                     
                                            #####                                    
                                            ######                                   
                                           ########,                                 
                                     ,,################,,,,,                         
                               ,,#################################,,                 
                          ,,##########################################,,             
                       ,#########################################, ''#####,          
                    ,#############################################,,   '####,        
                  ,##################################################,,,,####,       
                ,###########''''           ''''###############################       
              ,#####''   ,,,,##########,,,,          '''####'''          '####       
            ,##' ,,,,###########################,,,                        '##       
           ' ,,###''''                  '''############,,,                           
         ,,##''                                '''############,,,,        ,,,,,,###''
      ,#''                                            '''#######################'''  
     '                                                          ''''####''''         
             ,#######,   #######,   ,#######,      ##                                
            ,#'     '#,  ##    ##  ,#'     '#,    #''#        ,####,   ,####,        
            ##       ##  ##   ,#'  ##            #'  '#       #'       #'  '#        
            ##       ##  #######   ##           ,######,      #####,   #    #        
            '#,     ,#'  ##    ##  '#,     ,#' ,#      #,     #,   #   #,  ,#        
             '#######'   ##     ##  '#######'  #'      '#     '####' # '####'        



                #########################################################
                #                        -***-                          #
                #          Department of theory and spectroscopy        #
                #                                                       #
                #                      Frank Neese                      #
                #                                                       #
                #     Directorship, Architecture, Infrastructure        #
                #                    SHARK, DRIVERS                     #
                #        Core code/Algorithms in most modules           #
                #                                                       #
                #        Max Planck Institute fuer Kohlenforschung      #
                #                Kaiser Wilhelm Platz 1                 #
                #                 D-45470 Muelheim/Ruhr                 #
                #                      Germany                          #
                #                                                       #
                #                  All rights reserved                  #
                #                        -***-                          #
                #########################################################


                         Program Version 6.0.1  -  RELEASE   -


 With contributions from (in alphabetic order):
[Max-Planck-Institut fuer Kohlenforschung]                               
  Daniel Aravena         : Magnetic Suceptibility                        
  Michael Atanasov       : Ab Initio Ligand Field Theory (pilot matlab implementation)
  Alexander A. Auer      : GIAO ZORA, VPT2 properties, NMR spectrum      
  Ute Becker             : All parallelization in ORCA, NUMFREQ, NUMCALC 
  Giovanni Bistoni       : ED, misc. LED, open-shell LED, HFLD           
  Martin Brehm           : Molecular dynamics                            
  Dmytro Bykov           : pre 5.0 version of the SCF Hessian            
  Marcos Casanova-Páez   : Triplet and SCS-CIS(D). UHF-(DLPNO)-IP/EA/STEOM-CCSD. UHF-CVS-IP/STEOM-CCSD   
  Vijay G. Chilkuri      : MRCI spin determinant printing, contributions to CSF-ICE 
  Pauline Colinet        : FMM embedding                                 
  Dipayan Datta          : RHF DLPNO-CCSD density                        
  Achintya Kumar Dutta   : EOM-CC, STEOM-CC                              
  Nicolas Foglia         : Exact transition moments, OPA infrastructure, MCD improvements    
  Dmitry Ganyushin       : Spin-Orbit,Spin-Spin,Magnetic field MRCI      
  Miquel Garcia-Rates    : C-PCM and meta-GGA Hessian, CCSD/C-PCM, Gaussian charge scheme 
  Tiago L. C. Gouveia    : GS-ROHF, GS-ROCIS                             
  Yang Guo               : DLPNO-NEVPT2, F12-NEVPT2, CIM, IAO-localization        
  Andreas Hansen         : Spin unrestricted coupled pair/coupled cluster methods 
  Ingolf Harden          : AUTO-CI MPn and infrastructure                
  Benjamin Helmich-Paris : MC-RPA, TRAH-(SCF,CASSCF), AVAS, COSX integrals, SCF dyn. polar. 
  Lee Huntington         : MR-EOM, pCC                                   
  Robert Izsak           : Overlap fitted RIJCOSX, COSX-SCS-MP3, EOM     
  Riya Kayal             : Wick's Theorem for AUTO-CI, AUTO-CI UHF-CCSDT 
  Emily Kempfer          : AUTO-CI, RHF CISDT and CCSDT                  
  Christian Kollmar      : KDIIS, OOCD, Brueckner-CCSD(T), CCSD density, CASPT2, CASPT2-K, improved NEVPT2 
  Axel Koslowski         : Symmetry handling                             
  Simone Kossmann        : meta-GGA functionals, TD-DFT gradient, OOMP2, (MP2 Hessian; deprecated post 5.0) 
  Lucas Lang             : DCDCAS                                        
  Marvin Lechner         : AUTO-CI (C++ implementation), FIC-MRCC        
  Spencer Leger          : CASSCF response                               
  Dagmar Lenk            : GEPOL surface, SMD, ORCA-2-JSON               
  Dimitrios Liakos       : Extrapolation schemes; Compound Job, initial MDCI parallelization 
  Dimitrios Manganas     : Further ROCIS development; embedding schemes. LFT, Crystal Embedding 
  Dimitrios Pantazis     : SARC Basis sets                               
  Anastasios Papadopoulos: AUTO-CI, single reference methods and gradients 
  Taras Petrenko         : pre 6.0 DFT Hessian and TD-DFT gradient, (ASA, deprecated), ECA, 1-Electron XAS/XES, NRVS 
  Peter Pinski           : DLPNO-MP2, DLPNO-MP2 Gradient                 
  Christoph Reimann      : Effective Core Potentials                     
  Marius Retegan         : Local ZFS, SOC                                
  Christoph Riplinger    : Optimizer, TS searches, QM/MM, DLPNO-CCSD(T), (RO)-DLPNO pert. Triples 
  Michael Roemelt        : Original ROCIS implementation                 
  Masaaki Saitow         : Open-shell DLPNO-CCSD energy and density      
  Barbara Sandhoefer     : DKH picture change effects                    
  Kantharuban Sivalingam : CASSCF convergence/infrastructure, NEVPT2 and variants, FIC-MRCI 
  Bernardo de Souza      : ESD, SOC TD-DFT                               
  Georgi L. Stoychev     : AutoAux, RI-MP2 NMR, DLPNO-MP2 response, X2C  
  Van Anh Tran           : RI-MP2 g-tensors                              
  Willem Van den Heuvel  : Paramagnetic NMR                              
  Zikuan Wang            : NOTCH, Electric field optimization            
  Frank Wennmohs         : Technical directorship and infrastructure     
  Hang Xu                : AUTO-CI-Response properties                   
                                                                         
[FACCTs GmbH]                                                            
  Markus Bursch, Miquel Garcia-Rates, Christoph Riplinger, Bernardo de Souza, Georgi L. Stoychev 
                                                                 
  APM, Basis sets (HGBS, AHGBS, def-TZVP (Ac-Lr), def2-XVPD (La-Lu)), CI-OPT, improved COSX, DLPNO-Multilevel,           
  DOCKER, DRACO, updates on ESD, GOAT, IRC, LR-CPCM, MBIS, meta-GGA TD-DFT gradient, ML-optimized integration grids, 
  MM, NACMEs, nearIR, NEB, NEB-TS, NL-DFT gradient (VV10), 2- and 3-layer-ONIOM, interface openCOSMO-RS, QMMM,   
  Crystal-QMMM, SF, symmetry and pop. for TD-DFT, r2SCAN hybrids, SOLVATOR                                   
                                                                         
[Other institutions]                                                     
  V. Asgeirsson          : NEB                                           
  Christoph Bannwarth    : sTDA-DFT, sTD-DFT, PBEh-3c, B97-3c, D3        
  Sebastian Ehlert       : rSCAN, r2SCAN, r2SCAN-3c, D4, dhf basis sets  
  Marvin Friede          : D4 for Fr, Ra, Ac-Lr                          
  Lars Goerigk           : TD-DFT with DH, B97 family of functionals     
  Stefan Grimme          : VdW corrections, initial TS optimization, DFT functionals, gCP, sTDA/sTD-DF 
  Waldemar Hujo          : DFT-NL                                        
  H. Jonsson             : NEB                                           
  Holger Kruse           : gCP                                           
  Marcel Mueller         : wB97X-3c, vDZP basis set                      
  Hagen Neugebauer       : wr2SCAN                                       
  Tobias Risthaus        : range-separated hybrid DFT                    
  Lukas Wittmann         : regularized MP2, r2SCAN double-hybrids, wr2SCAN        
                                                                         
We gratefully acknowledge several colleagues who have allowed us to      
interface, adapt or use parts of their codes:                            
  Ed Valeev, F. Pavosevic, A. Kumar             : LibInt (2-el integral package), F12 methods 
  Garnet Chan, S. Sharma, J. Yang, R. Olivares  : DMRG                   
  Ulf Ekstrom                                   : XCFun DFT Library      
  Mihaly Kallay                                 : mrcc  (arbitrary order and MRCC methods)
  Frank Weinhold                                : gennbo (NPA and NBO analysis)           
  Simon Mueller                                 : openCOSMO-RS                            
  Christopher J. Cramer and Donald G. Truhlar   : smd solvation model                     
  S Lehtola, MJT Oliveira, MAL Marques          : LibXC Library                           
  Liviu Ungur et al                             : ANISO software                          


 Your calculation uses the libint2 library for the computation of 2-el integrals
 For citations please refer to: http://libint.valeyev.net

 Your ORCA version has been built with support for libXC version: 6.2.2
 For citations please refer to: https://libxc.gitlab.io

 This ORCA versions uses:
   CBLAS   interface :  Fast vector & matrix operations
   LAPACKE interface :  Fast linear algebra routines
   SCALAPACK package :  Parallel linear algebra routines
   Shared memory     :  Shared parallel matrices
   BLAS/LAPACK       :  OpenBLAS 0.3.27  USE64BITINT DYNAMIC_ARCH NO_AFFINITY Zen SINGLE_THREADED
        Core in use  :  Zen
   Copyright (c) 2011-2014, The OpenBLAS Project


NOTE: MaxCore=6000 MB was set to SCF,MP2,MDCI,CIPSI,MRCI and CIS
      => If you want to overwrite this, your respective input block should be placed after the MaxCore statement
Your calculation utilizes the atom-pairwise dispersion correction
with the Becke-Johnson damping scheme (D3BJ)


Your calculation employs the composite approach B97-3c by Grimme and coworkers.
For the correct reference, please check the publication list of the Grimme group:
http://www.thch.uni-bonn.de/tc/index.php?section=publikationen&subsection=grimme#2017
   

XCFun DFT library Copyright 2009-2010 Ulf Ekstrom and contributors.
See http://admol.org/xcfun for more information.
This is free software; see the source code for copying conditions.
There is ABSOLUTELY NO WARRANTY; not even for MERCHANTABILITY or FITNESS FOR A PARTICULAR PURPOSE.
For details see the documentation.
Scientific users of this library should cite U. Ekstrom, L. Visscher, R. Bast, A. J. Thorvaldsen and K. Ruud;
J.Chem.Theor.Comp. 2010, DOI: 10.1021/ct100117s
XCFun Version 0.99 

================================================================================

----- Orbital basis set information -----
Your calculation utilizes the basis: def2-mTZVP
----- AuxJ basis set information -----
Your calculation utilizes the basis: def2-mTZVP/J
================================================================================
                                        WARNINGS
                       Please study these warnings very carefully!
================================================================================


WARNING: Geometry Optimization
  ===> : Switching off AutoStart
         For restart on a previous wavefunction, please use MOREAD

================================================================================
                                       INPUT FILE
================================================================================
NAME = m1_00_Vitamin_B7-QM3_002-B97-3C-TZ.inp
|  1> %pal nprocs 16 end
|  2> %MaxCore 6000
|  3> # put your comments here
|  4> ! B97-3C  OPT  FREQ DEFGRID3 NOTRAH
|  5> %scf MaxIter 800 end
|  6> %output
|  7> Print [P_Hirshfeld] 1
|  8> end
|  9> %geom
| 10> MaxIter 3000
| 11>  TolE 1e-6 #TolE 5e-6 Energy change (a.u.)
| 12>  TolRMSG 3e-5 #TolRMSG 1e-4 RMS gradient (a.u.)
| 13>  TolMaxG 1e-4 #TolMaxG 3e-3 Max. element of gradient (a.u.)
| 14>  TolRMSD 2e-3 #TolRMSD 2e-3 RMS displacement (a.u.)
| 15>  TolMaxD 4e-3 #TolMaxD 4e-3 Max. displacement (a.u.)
| 16> end
| 17> * xyz 0 1
| 18>  S      -3.12121270      -0.87663250       1.12599754
| 19>  O       2.35793177       0.29710495       1.79577868
| 20>  O       2.56013046       1.32485859      -0.56908061
| 21>  O       2.38219324      -0.76334030      -1.33789041
| 22>  N       0.75899067      -1.03626862       0.80583011
| 23>  N       0.29854033      -0.13045280       2.75359011
| 24>  C      -0.56995152      -1.48530805       1.07000020
| 25>  C      -0.85533858      -0.93496595       2.46915246
| 26>  C      -1.62832317      -0.97868510       0.09913952
| 27>  C      -2.14369401      -0.14154990       2.44425703
| 28>  C      -1.25893950       0.33415413      -0.55868837
| 29>  C      -0.57460346       0.12555784      -1.90323251
| 30>  C       1.26685706      -0.24295470       1.78845224
| 31>  C       0.19446545       1.35314791      -2.40083032
| 32>  C       1.65438712       1.03759867      -2.72116609
| 33>  C       2.27544015       0.43669168      -1.49065831
| 34>  H      -0.61030643      -2.58090925       1.07419440
| 35>  H      -0.94747966      -1.75394068       3.19215460
| 36>  H      -1.83617410      -1.72314752      -0.67098022
| 37>  H      -2.68479676      -0.17517612       3.38962611
| 38>  H      -1.92674783       0.89588472       2.21097764
| 39>  H      -2.15119342       0.94430795      -0.70998763
| 40>  H      -0.61352260       0.89544042       0.10740850
| 41>  H       1.34434780      -1.26700482       0.01151654
| 42>  H       0.52209893       0.26311763       3.64971779
| 43>  H       0.10786652      -0.71405277      -1.82803616
| 44>  H      -1.32617085      -0.17269178      -2.64064136
| 45>  H      -0.28115241       1.77327640      -3.29365008
| 46>  H       0.17950442       2.13864814      -1.64431726
| 47>  H       2.19283116       1.94770756      -2.99714190
| 48>  H       1.73377529       0.31449509      -3.53426726
| 49>  H       2.70024662       0.89508916       0.31277501
| 50> *
| 51> 
| 52> 
| 53> 
| 54> 
| 55>                          ****END OF INPUT****
================================================================================

                       *****************************
                       * Geometry Optimization Run *
                       *****************************

Geometry optimization settings:
Update method            Update   .... BFGS
Choice of coordinates    CoordSys .... (2022) Redundant Internals
Initial Hessian          InHess   .... Almloef's Model
Max. no of cycles        MaxIter  .... 3000

Convergence Tolerances:
Energy Change            TolE     ....  1.0000e-06 Eh
Max. Gradient            TolMAXG  ....  1.0000e-04 Eh/bohr
RMS Gradient             TolRMSG  ....  3.0000e-05 Eh/bohr
Max. Displacement        TolMAXD  ....  4.0000e-03 bohr
RMS Displacement         TolRMSD  ....  2.0000e-03 bohr
Strict Convergence                .... False

------------------------------------------------------------------------------
                        ORCA OPTIMIZATION COORDINATE SETUP
------------------------------------------------------------------------------

The optimization will be done in redundant internal coordinates (2022)
Making redundant internal coordinates   ...  (2022 redundants) done
Evaluating the initial hessian          ...  (Almloef) done
Evaluating the coordinates              ...  done
Calculating the B-matrix                .... done
Calculating the G-matrix                .... done
Diagonalizing the G-matrix              .... done
Small eigenvalue found = 8.151e-03
Small eigenvalue found = 1.762e-02
The first mode is                       ....   81
The number of degrees of freedom        ....   90

    -----------------------------------------------------------------
                    Redundant Internal Coordinates


    -----------------------------------------------------------------
         Definition                    Initial Value    Approx d2E/dq
    -----------------------------------------------------------------
      1. B(C   6,N   4)                  1.4274         0.487736   
      2. B(C   7,C   6)                  1.5303         0.373104   
      3. B(C   7,N   5)                  1.4351         0.474113   
      4. B(C   8,C   6)                  1.5230         0.383371   
      5. B(C   8,S   0)                  1.8148         0.353780   
      6. B(C   9,C   7)                  1.5133         0.397254   
      7. B(C   9,S   0)                  1.7982         0.375986   
      8. B(C  10,C   8)                  1.5142         0.395935   
      9. B(C  11,C  10)                  1.5230         0.383261   
     10. B(C  12,N   5)                  1.3718         0.598331   
     11. B(C  12,N   4)                  1.3612         0.622085   
     12. B(C  12,O   1)                  1.2174         1.054830   
     13. B(C  13,C  11)                  1.5317         0.371274   
     14. B(C  14,C  13)                  1.5276         0.376885   
     15. B(C  15,O   2)                  1.3112         0.747527   
     16. B(C  15,C  14)                  1.5036         0.411554   
     17. B(C  15,O   3)                  1.2144         1.066609   
     18. B(H  16,C   6)                  1.0964         0.351794   
     19. B(H  17,C   7)                  1.0963         0.351822   
     20. B(H  18,C   8)                  1.0911         0.358641   
     21. B(H  19,C   9)                  1.0898         0.360376   
     22. B(H  20,C   9)                  1.0852         0.366446   
     23. B(H  21,C  10)                  1.0915         0.358167   
     24. B(H  22,C  10)                  1.0841         0.367979   
     25. B(H  23,N   4)                  1.0133         0.427463   
     26. B(H  23,O   3)                  1.7753         0.026014   
     27. B(H  24,N   5)                  1.0040         0.442428   
     28. B(H  25,C  11)                  1.0846         0.367310   
     29. B(H  26,C  11)                  1.0943         0.354405   
     30. B(H  27,C  13)                  1.0954         0.353059   
     31. B(H  28,C  13)                  1.0907         0.359224   
     32. B(H  29,C  14)                  1.0929         0.356313   
     33. B(H  30,C  14)                  1.0910         0.358759   
     34. B(H  31,O   3)                  2.3614         0.003021   
     35. B(H  31,O   1)                  1.6353         0.043515   
     36. B(H  31,O   2)                  0.9910         0.464056   
     37. A(C   8,S   0,C   9)           89.4620         0.399828   
     38. A(C  15,O   2,H  31)          111.2479         0.374820   
     39. A(C   6,N   4,C  12)          113.3977         0.410714   
     40. A(C   6,N   4,H  23)          127.6801         0.343710   
     41. A(C  12,N   4,H  23)          118.8846         0.358130   
     42. A(C   7,N   5,C  12)          112.4656         0.405853   
     43. A(C   7,N   5,H  24)          125.1495         0.344061   
     44. A(C  12,N   5,H  24)          120.1965         0.357854   
     45. A(C   8,C   6,H  16)          108.0164         0.324455   
     46. A(N   4,C   6,H  16)          110.4472         0.335596   
     47. A(C   7,C   6,C   8)          109.4879         0.364885   
     48. A(N   4,C   6,C   7)          103.2791         0.377939   
     49. A(C   7,C   6,H  16)          110.4269         0.323012   
     50. A(N   4,C   6,C   8)          115.1113         0.379720   
     51. A(C   6,C   7,H  17)          110.4856         0.323017   
     52. A(N   5,C   7,C   9)          113.1953         0.380197   
     53. A(N   5,C   7,C   6)          103.4658         0.376093   
     54. A(N   5,C   7,H  17)          110.8324         0.334024   
     55. A(C   9,C   7,H  17)          109.3270         0.326362   
     56. A(C   6,C   7,C   9)          109.4071         0.367115   
     57. A(C   6,C   8,H  18)          110.8154         0.325484   
     58. A(S   0,C   8,C   6)          103.2780         0.380720   
     59. A(C   6,C   8,C  10)          113.3187         0.368619   
     60. A(S   0,C   8,C  10)          113.4368         0.382857   
     61. A(S   0,C   8,H  18)          106.3215         0.337526   
     62. A(C  10,C   8,H  18)          109.3543         0.327216   
     63. A(S   0,C   9,C   7)          105.1019         0.387158   
     64. A(H  19,C   9,H  20)          108.3742         0.291674   
     65. A(C   7,C   9,H  20)          109.5452         0.328560   
     66. A(S   0,C   9,H  20)          109.9900         0.342205   
     67. A(C   7,C   9,H  19)          113.0960         0.327656   
     68. A(S   0,C   9,H  19)          110.6961         0.341250   
     69. A(C   8,C  10,C  11)          111.9870         0.368600   
     70. A(H  21,C  10,H  22)          106.4050         0.291584   
     71. A(C  11,C  10,H  22)          110.2320         0.326848   
     72. A(C   8,C  10,H  22)          109.0989         0.328606   
     73. A(C  11,C  10,H  21)          108.7539         0.325398   
     74. A(C   8,C  10,H  21)          110.2116         0.327145   
     75. A(C  13,C  11,H  26)          110.1425         0.323144   
     76. A(C  10,C  11,H  26)          108.8815         0.324834   
     77. A(C  13,C  11,H  25)          109.0873         0.325047   
     78. A(H  25,C  11,H  26)          105.5384         0.291017   
     79. A(C  10,C  11,H  25)          109.1201         0.326750   
     80. A(C  10,C  11,C  13)          113.7432         0.364560   
     81. A(O   1,C  12,N   4)          126.6739         0.472082   
     82. A(N   4,C  12,N   5)          106.9971         0.425945   
     83. A(O   1,C  12,N   5)          126.2991         0.468721   
     84. A(H  27,C  13,H  28)          106.4497         0.289829   
     85. A(C  11,C  13,H  28)          110.1813         0.323860   
     86. A(C  14,C  13,H  27)          108.8611         0.323738   
     87. A(C  11,C  13,H  27)          110.7431         0.322942   
     88. A(C  14,C  13,H  28)          107.8985         0.324659   
     89. A(C  11,C  13,C  14)          112.4844         0.363516   
     90. A(H  29,C  14,H  30)          109.1409         0.290187   
     91. A(C  15,C  14,H  30)          108.3589         0.329330   
     92. A(C  13,C  14,H  30)          111.2680         0.324590   
     93. A(C  15,C  14,H  29)          109.6308         0.328958   
     94. A(C  13,C  14,H  29)          110.5969         0.324226   
     95. A(C  13,C  14,C  15)          107.7989         0.369991   
     96. A(O   3,C  15,C  14)          122.2864         0.441665   
     97. A(O   2,C  15,C  14)          113.2138         0.414402   
     98. A(O   2,C  15,O   3)          124.1840         0.489350   
     99. D(H  16,C   6,N   4,C  12)   -121.9179         0.020367   
    100. D(C   7,C   6,N   4,C  12)     -3.8379         0.020367   
    101. D(C   8,C   6,N   4,H  23)    -66.8344         0.020367   
    102. D(C   8,C   6,N   4,C  12)    115.4476         0.020367   
    103. D(C   7,C   6,N   4,H  23)    173.8802         0.020367   
    104. D(C   6,C   7,N   5,H  24)   -169.3469         0.019214   
    105. D(C   6,C   7,N   5,C  12)     -6.2480         0.019214   
    106. D(N   5,C   7,C   6,H  16)    123.8593         0.011117   
    107. D(N   5,C   7,C   6,N   4)      5.7652         0.011117   
    108. D(C   9,C   7,C   6,H  16)   -115.2264         0.011117   
    109. D(C   9,C   7,N   5,C  12)   -124.5633         0.019214   
    110. D(N   5,C   7,C   6,C   8)   -117.3314         0.011117   
    111. D(C   9,C   7,C   6,C   8)      3.5829         0.011117   
    112. D(C   9,C   7,C   6,N   4)    126.6795         0.011117   
    113. D(H  17,C   7,N   5,C  12)    112.1862         0.019214   
    114. D(C   9,C   7,N   5,H  24)     72.3378         0.019214   
    115. D(C  10,C   8,C   6,H  16)   -149.7852         0.011703   
    116. D(C  10,C   8,C   6,C   7)     89.9230         0.011703   
    117. D(S   0,C   8,C   6,H  16)     87.0715         0.011703   
    118. D(S   0,C   8,C   6,C   7)    -33.2203         0.011703   
    119. D(C  10,C   8,C   6,N   4)    -25.8585         0.011703   
    120. D(H  18,C   8,S   0,C   9)    160.1291         0.003501   
    121. D(S   0,C   8,C   6,N   4)   -149.0018         0.011703   
    122. D(C   6,C   8,S   0,C   9)     43.4139         0.003501   
    123. D(C  10,C   8,S   0,C   9)    -79.6511         0.003501   
    124. D(S   0,C   9,C   7,C   6)     28.2111         0.012527   
    125. D(S   0,C   9,C   7,N   5)    143.0183         0.012527   
    126. D(H  20,C   9,S   0,C   8)     75.8889         0.003769   
    127. D(C   7,C   9,S   0,C   8)    -41.9443         0.003769   
    128. D(S   0,C   9,C   7,H  17)    -92.9049         0.012527   
    129. D(H  19,C   9,S   0,C   8)   -164.3753         0.003769   
    130. D(H  19,C   9,C   7,H  17)     27.9610         0.012527   
    131. D(H  19,C   9,C   7,C   6)    149.0770         0.012527   
    132. D(H  19,C   9,C   7,N   5)    -96.1158         0.012527   
    133. D(H  21,C  10,C   8,H  18)     90.8643         0.012447   
    134. D(H  21,C  10,C   8,C   6)   -144.9720         0.012447   
    135. D(H  21,C  10,C   8,S   0)    -27.6198         0.012447   
    136. D(C  11,C  10,C   8,H  18)    -30.3420         0.012447   
    137. D(C  11,C  10,C   8,C   6)     93.8217         0.012447   
    138. D(C  11,C  10,C   8,S   0)   -148.8261         0.012447   
    139. D(H  25,C  11,C  10,H  22)     81.5881         0.011697   
    140. D(H  25,C  11,C  10,H  21)   -162.1157         0.011697   
    141. D(H  25,C  11,C  10,C   8)    -40.0719         0.011697   
    142. D(C  13,C  11,C  10,H  22)    -40.4576         0.011697   
    143. D(C  13,C  11,C  10,H  21)     75.8386         0.011697   
    144. D(C  13,C  11,C  10,C   8)   -162.1176         0.011697   
    145. D(N   4,C  12,N   5,H  24)    168.1324         0.028835   
    146. D(N   4,C  12,N   5,C   7)      4.0961         0.028835   
    147. D(O   1,C  12,N   5,H  24)    -13.7567         0.028835   
    148. D(O   1,C  12,N   5,C   7)   -177.7930         0.028835   
    149. D(N   5,C  12,N   4,H  23)   -177.8096         0.031353   
    150. D(N   5,C  12,N   4,C   6)      0.1279         0.031353   
    151. D(O   1,C  12,N   4,H  23)      4.0887         0.031353   
    152. D(O   1,C  12,N   4,C   6)   -177.9739         0.031353   
    153. D(H  27,C  13,C  11,H  26)      9.9152         0.011015   
    154. D(H  27,C  13,C  11,H  25)    125.3103         0.011015   
    155. D(H  27,C  13,C  11,C  10)   -112.6259         0.011015   
    156. D(C  14,C  13,C  11,H  26)   -112.1495         0.011015   
    157. D(C  14,C  13,C  11,H  25)      3.2456         0.011015   
    158. D(C  14,C  13,C  11,C  10)    125.3094         0.011015   
    159. D(C  15,C  14,C  13,H  28)     66.0301         0.011331   
    160. D(C  15,C  14,C  13,H  27)   -178.8325         0.011331   
    161. D(C  15,C  14,C  13,C  11)    -55.7080         0.011331   
    162. D(H  29,C  14,C  13,H  28)    -53.8108         0.011331   
    163. D(H  29,C  14,C  13,H  27)     61.3266         0.011331   
    164. D(H  29,C  14,C  13,C  11)   -175.5489         0.011331   
    165. D(O   3,C  15,C  14,H  29)   -142.5229         0.012541   
    166. D(O   3,C  15,C  14,C  13)     97.0270         0.012541   
    167. D(O   2,C  15,C  14,H  30)    162.7053         0.012541   
    168. D(O   2,C  15,C  14,H  29)     43.6820         0.012541   
    169. D(O   2,C  15,C  14,C  13)    -76.7681         0.012541   
    170. D(C  14,C  15,O   2,H  31)    162.5445         0.042410   
    171. D(O   3,C  15,O   2,H  31)    -11.1139         0.042410   
    -----------------------------------------------------------------

Number of atoms                         .... 32
Number of degrees of freedom            .... 171


         *************************************************************
         *                GEOMETRY OPTIMIZATION CYCLE   1            *
         *************************************************************
---------------------------------
CARTESIAN COORDINATES (ANGSTROEM)
---------------------------------
  S     -3.121213   -0.876633    1.125998
  O      2.357932    0.297105    1.795779
  O      2.560130    1.324859   -0.569081
  O      2.382193   -0.763340   -1.337890
  N      0.758991   -1.036269    0.805830
  N      0.298540   -0.130453    2.753590
  C     -0.569952   -1.485308    1.070000
  C     -0.855339   -0.934966    2.469152
  C     -1.628323   -0.978685    0.099140
  C     -2.143694   -0.141550    2.444257
  C     -1.258940    0.334154   -0.558688
  C     -0.574603    0.125558   -1.903233
  C      1.266857   -0.242955    1.788452
  C      0.194465    1.353148   -2.400830
  C      1.654387    1.037599   -2.721166
  C      2.275440    0.436692   -1.490658
  H     -0.610306   -2.580909    1.074194
  H     -0.947480   -1.753941    3.192155
  H     -1.836174   -1.723148   -0.670980
  H     -2.684797   -0.175176    3.389626
  H     -1.926748    0.895885    2.210978
  H     -2.151193    0.944308   -0.709988
  H     -0.613523    0.895440    0.107408
  H      1.344348   -1.267005    0.011517
  H      0.522099    0.263118    3.649718
  H      0.107867   -0.714053   -1.828036
  H     -1.326171   -0.172692   -2.640641
  H     -0.281152    1.773276   -3.293650
  H      0.179504    2.138648   -1.644317
  H      2.192831    1.947708   -2.997142
  H      1.733775    0.314495   -3.534267
  H      2.700247    0.895089    0.312775

----------------------------
CARTESIAN COORDINATES (A.U.)
----------------------------
  NO LB      ZA    FRAG     MASS         X           Y           Z
   0 S    16.0000    0    32.060   -5.898237   -1.656595    2.127827
   1 O     8.0000    0    15.999    4.455845    0.561447    3.393530
   2 O     8.0000    0    15.999    4.837945    2.503620   -1.075407
   3 O     8.0000    0    15.999    4.501693   -1.442504   -2.528246
   4 N     7.0000    0    14.007    1.434285   -1.958264    1.522798
   5 N     7.0000    0    14.007    0.564159   -0.246520    5.203531
   6 C     6.0000    0    12.011   -1.077052   -2.806825    2.022007
   7 C     6.0000    0    12.011   -1.616356   -1.766830    4.666022
   8 C     6.0000    0    12.011   -3.077085   -1.849447    0.187347
   9 C     6.0000    0    12.011   -4.050995   -0.267491    4.618976
  10 C     6.0000    0    12.011   -2.379051    0.631460   -1.055768
  11 C     6.0000    0    12.011   -1.085843    0.237270   -3.596588
  12 C     6.0000    0    12.011    2.394013   -0.459118    3.379685
  13 C     6.0000    0    12.011    0.367486    2.557079   -4.536912
  14 C     6.0000    0    12.011    3.126339    1.960777   -5.142259
  15 C     6.0000    0    12.011    4.299959    0.825228   -2.816936
  16 H     1.0000    0     1.008   -1.153312   -4.877212    2.029933
  17 H     1.0000    0     1.008   -1.790477   -3.314468    6.032298
  18 H     1.0000    0     1.008   -3.469866   -3.256277   -1.267969
  19 H     1.0000    0     1.008   -5.073531   -0.331035    6.405465
  20 H     1.0000    0     1.008   -3.641026    1.692977    4.178142
  21 H     1.0000    0     1.008   -4.065166    1.784483   -1.341682
  22 H     1.0000    0     1.008   -1.159390    1.692137    0.202973
  23 H     1.0000    0     1.008    2.540449   -2.394292    0.021763
  24 H     1.0000    0     1.008    0.986624    0.497220    6.896967
  25 H     1.0000    0     1.008    0.203838   -1.349364   -3.454488
  26 H     1.0000    0     1.008   -2.506100   -0.326340   -4.990089
  27 H     1.0000    0     1.008   -0.531301    3.351007   -6.224097
  28 H     1.0000    0     1.008    0.339214    4.041459   -3.107309
  29 H     1.0000    0     1.008    4.143850    3.680634   -5.663777
  30 H     1.0000    0     1.008    3.276360    0.594310   -6.678797
  31 H     1.0000    0     1.008    5.102727    1.691473    0.591059

--------------------------------
INTERNAL COORDINATES (ANGSTROEM)
--------------------------------
 S      0   0   0     0.000000000000     0.00000000     0.00000000
 O      1   0   0     5.643340367208     0.00000000     0.00000000
 O      2   1   0     2.586449558037    92.86771277     0.00000000
 O      3   2   1     2.232331688400    86.38543390   288.09988342
 N      2   1   3     2.305319042929    32.36335965   286.38799227
 N      5   2   1     2.196880932816    61.71651005   331.11707752
 C      5   2   1     1.427413601766   138.43635281   332.63335554
 C      6   5   2     1.435124637167    76.21112877   182.98433678
 C      7   5   2     1.522953650956   115.11129452   114.15418540
 C      8   6   5     1.513270803539   113.19533219   237.93446088
 C      9   7   5     1.514175905353   113.31874272   334.14148379
 C     11   9   7     1.523032229552   111.98695186    93.82170698
 C      2   1   3     1.217440809683    15.61216542   224.21563621
 C     12  11   9     1.531681412307   113.74317152   197.88239133
 C     14  12  11     1.527598641968   112.48444402   125.30939449
 C      4   3   2     1.214417970271    29.07050634   156.79735862
 H      7   5   2     1.096352178598   110.44720682   236.78877264
 H      8   6   5     1.096331009069   110.83238793   114.68394571
 H      9   7   5     1.091105273487   110.81543822    97.50599646
 H     10   8   6     1.089791542520   113.09603661   263.88421935
 H     10   8   6     1.085244446929   109.54517876    24.88415418
 H     11   9   7     1.091465165680   110.21162398   215.02802047
 H     11   9   7     1.084108073197   109.09888900   331.51326293
 H      5   2   1     1.013319402320    93.87910815   153.41753095
 H      6   5   2     1.003952663160   155.00529241   334.21051403
 H     12  11   9     1.084603955866   109.12006928   319.92806232
 H     12  11   9     1.094339156569   108.88147820    74.65016629
 H     14  12  11     1.095375470196   110.74307127   247.37405312
 H     14  12  11     1.090663309046   110.18134521     4.87818072
 H     15  14  12     1.092878229069   110.59686633   184.45112373
 H     15  14  12     1.091015481833   111.26804618    62.97360418
 H      3   2   1     0.990960965821    12.85501040   204.94756623

---------------------------
INTERNAL COORDINATES (A.U.)
---------------------------
 S      0   0   0     0.000000000000     0.00000000     0.00000000
 O      1   0   0    10.664367774526     0.00000000     0.00000000
 O      2   1   0     4.887681323892    92.86771277     0.00000000
 O      3   2   1     4.218495531150    86.38543390   288.09988342
 N      2   1   3     4.356421642448    32.36335965   286.38799227
 N      5   2   1     4.151503311855    61.71651005   331.11707752
 C      5   2   1     2.697420787172   138.43635281   332.63335554
 C      6   5   2     2.711992532288    76.21112877   182.98433678
 C      7   5   2     2.877965314963   115.11129452   114.15418540
 C      8   6   5     2.859667385147   113.19533219   237.93446088
 C      9   7   5     2.861377779699   113.31874272   334.14148379
 C     11   9   7     2.878113806988   111.98695186    93.82170698
 C      2   1   3     2.300629714561    15.61216542   224.21563621
 C     12  11   9     2.894458393679   113.74317152   197.88239133
 C     14  12  11     2.886743075869   112.48444402   125.30939449
 C      4   3   2     2.294917375925    29.07050634   156.79735862
 H      7   5   2     2.071805363878   110.44720682   236.78877264
 H      8   6   5     2.071765359266   110.83238793   114.68394571
 H      9   7   5     2.061890150168   110.81543822    97.50599646
 H     10   8   6     2.059407558427   113.09603661   263.88421935
 H     10   8   6     2.050814793054   109.54517876    24.88415418
 H     11   9   7     2.062570247850   110.21162398   215.02802047
 H     11   9   7     2.048667357916   109.09888900   331.51326293
 H      5   2   1     1.914896156574    93.87910815   153.41753095
 H      6   5   2     1.897195584794   155.00529241   334.21051403
 H     12  11   9     2.049604440353   109.12006928   319.92806232
 H     12  11   9     2.068001303542   108.88147820    74.65016629
 H     14  12  11     2.069959652486   110.74307127   247.37405312
 H     14  12  11     2.061054958413   110.18134521     4.87818072
 H     15  14  12     2.065240550666   110.59686633   184.45112373
 H     15  14  12     2.061720468533   111.26804618    62.97360418
 H      3   2   1     1.872644834808    12.85501040   204.94756623

---------------------
BASIS SET INFORMATION
---------------------
There are 5 groups of distinct atoms

 Group   1 Type S   : 14s9p1d contracted to 5s4p1d pattern {73211/6111/1}
 Group   2 Type O   : 11s6p2d contracted to 5s3p2d pattern {62111/411/11}
 Group   3 Type N   : 11s6p1d contracted to 5s3p1d pattern {62111/411/1}
 Group   4 Type C   : 11s6p1d contracted to 5s3p1d pattern {62111/411/1}
 Group   5 Type H   : 5s contracted to 3s pattern {311}

Atom   0S    basis set group =>   1
Atom   1O    basis set group =>   2
Atom   2O    basis set group =>   2
Atom   3O    basis set group =>   2
Atom   4N    basis set group =>   3
Atom   5N    basis set group =>   3
Atom   6C    basis set group =>   4
Atom   7C    basis set group =>   4
Atom   8C    basis set group =>   4
Atom   9C    basis set group =>   4
Atom  10C    basis set group =>   4
Atom  11C    basis set group =>   4
Atom  12C    basis set group =>   4
Atom  13C    basis set group =>   4
Atom  14C    basis set group =>   4
Atom  15C    basis set group =>   4
Atom  16H    basis set group =>   5
Atom  17H    basis set group =>   5
Atom  18H    basis set group =>   5
Atom  19H    basis set group =>   5
Atom  20H    basis set group =>   5
Atom  21H    basis set group =>   5
Atom  22H    basis set group =>   5
Atom  23H    basis set group =>   5
Atom  24H    basis set group =>   5
Atom  25H    basis set group =>   5
Atom  26H    basis set group =>   5
Atom  27H    basis set group =>   5
Atom  28H    basis set group =>   5
Atom  29H    basis set group =>   5
Atom  30H    basis set group =>   5
Atom  31H    basis set group =>   5
---------------------------------
AUXILIARY/J BASIS SET INFORMATION
---------------------------------
There are 5 groups of distinct atoms

 Group   1 Type S   : 14s5p5d2f1g contracted to 8s4p3d1f1g pattern {71111111/2111/311/2/1}
 Group   2 Type O   : 8s3p3d contracted to 6s3p3d pattern {311111/111/111}
 Group   3 Type N   : 8s3p3d contracted to 6s3p3d pattern {311111/111/111}
 Group   4 Type C   : 8s3p3d contracted to 6s3p3d pattern {311111/111/111}
 Group   5 Type H   : 5s2p contracted to 3s1p pattern {311/2}

Atom   0S    basis set group =>   1
Atom   1O    basis set group =>   2
Atom   2O    basis set group =>   2
Atom   3O    basis set group =>   2
Atom   4N    basis set group =>   3
Atom   5N    basis set group =>   3
Atom   6C    basis set group =>   4
Atom   7C    basis set group =>   4
Atom   8C    basis set group =>   4
Atom   9C    basis set group =>   4
Atom  10C    basis set group =>   4
Atom  11C    basis set group =>   4
Atom  12C    basis set group =>   4
Atom  13C    basis set group =>   4
Atom  14C    basis set group =>   4
Atom  15C    basis set group =>   4
Atom  16H    basis set group =>   5
Atom  17H    basis set group =>   5
Atom  18H    basis set group =>   5
Atom  19H    basis set group =>   5
Atom  20H    basis set group =>   5
Atom  21H    basis set group =>   5
Atom  22H    basis set group =>   5
Atom  23H    basis set group =>   5
Atom  24H    basis set group =>   5
Atom  25H    basis set group =>   5
Atom  26H    basis set group =>   5
Atom  27H    basis set group =>   5
Atom  28H    basis set group =>   5
Atom  29H    basis set group =>   5
Atom  30H    basis set group =>   5
Atom  31H    basis set group =>   5


           ************************************************************
           *        Program running with 16 parallel MPI-processes    *
           *              working on a common directory               *
           ************************************************************
------------------------------------------------------------------------------
                             ORCA STARTUP CALCULATIONS
                           -- RI-GTO INTEGRALS CHOSEN --
------------------------------------------------------------------------------
------------------------------------------------------------------------------
                   ___                                                        
                  /   \      - P O W E R E D   B Y -                         
                 /     \                                                     
                 |  |  |   _    _      __       _____    __    __             
                 |  |  |  | |  | |    /  \     |  _  \  |  |  /  |          
                  \  \/   | |  | |   /    \    | | | |  |  | /  /          
                 / \  \   | |__| |  /  /\  \   | |_| |  |  |/  /          
                |  |  |   |  __  | /  /__\  \  |    /   |      \           
                |  |  |   | |  | | |   __   |  |    \   |  |\   \          
                \     /   | |  | | |  |  |  |  | |\  \  |  | \   \       
                 \___/    |_|  |_| |__|  |__|  |_| \__\ |__|  \__/        
                                                                              
                      - O R C A' S   B I G   F R I E N D -                    
                                      &                                       
                       - I N T E G R A L  F E E D E R -                       
                                                                              
 v1 FN, 2020, v2 2021, v3 2022-2024                                           
------------------------------------------------------------------------------


----------------------
SHARK INTEGRAL PACKAGE
----------------------

Number of atoms                             ...     32
Number of basis functions                   ...    370
Number of shells                            ...    196
Maximum angular momentum                    ...      2
Integral batch strategy                     ... SHARK/LIBINT Hybrid
RI-J (if used) integral strategy            ... SPLIT-RIJ (Revised 2003 algorithm where possible)
Printlevel                                  ...      1
Contraction scheme used                     ... SEGMENTED contraction
Prescreening option                         ... SCHWARTZ
   Thresh                                   ... 2.500e-11
   Tcut                                     ... 2.500e-12
   Tpresel                                  ... 2.500e-12 
Coulomb Range Separation                    ... NOT USED
Exchange Range Separation                   ... NOT USED
Multipole approximations                    ... NOT USED
Finite Nucleus Model                        ... NOT USED
CABS basis                                  ... NOT available
Auxiliary Coulomb fitting basis             ... AVAILABLE
   # of basis functions in Aux-J            ...    597
   # of shells in Aux-J                     ...    261
   Maximum angular momentum in Aux-J        ...      4
Auxiliary J/K fitting basis                 ... NOT available
Auxiliary Correlation fitting basis         ... NOT available
Auxiliary 'external' fitting basis          ... NOT available

Checking pre-screening integrals            ... done (  0.0 sec) Dimension = 196
Check shell pair data                       ... done (  0.0 sec)
Shell pair information
Shell pair cut-off parameter TPreSel        ...   2.5e-12
Total number of shell pairs                 ...     19306
Shell pairs after pre-screening             ...     16321
Total number of primitive shell pairs       ...     71671
Primitive shell pairs kept                  ...     39580
          la=0 lb=0:   6617 shell pairs
          la=1 lb=0:   5535 shell pairs
          la=1 lb=1:   1157 shell pairs
          la=2 lb=0:   1993 shell pairs
          la=2 lb=1:    850 shell pairs
          la=2 lb=2:    169 shell pairs

Calculating one electron integrals          ... done (  0.0 sec)
Calculating RI/J V-Matrix + Cholesky decomp.... done (  0.0 sec)
Calculating Nuclear repulsion               ... done (  0.0 sec) ENN=   1370.738936714390 Eh

Diagonalization of the overlap matrix:
Smallest eigenvalue                        ... 3.798e-05
Time for diagonalization                   ...    0.011 sec
Threshold for overlap eigenvalues          ... 1.000e-07
Number of eigenvalues below threshold      ... 0
Time for construction of square roots      ...    0.005 sec
Total time needed                          ...    0.017 sec

-------------------
DFT GRID GENERATION
-------------------

General Integration Accuracy     IntAcc      ... 4.959
Radial Grid Type                 RadialGrid  ... OptM3 with GC (2021)
Angular Grid (max. ang.)         AngularGrid ... 6 (Lebedev-590)
Angular grid pruning method      GridPruning ... 4 (adaptive)
Weight generation scheme         WeightScheme... mBecke (2022)
Basis function cutoff            BFCut       ... 1.0000e-11
Integration weight cutoff        WCut        ... 1.0000e-14
Partially contracted basis set               ... off
Rotationally invariant grid construction     ... off
Angular grids for H and He will be reduced by one unit
Diffuse basis detected: some atoms will have their outermost
                        angular grid increased by 1.

Total number of grid points                  ...   364376
Total number of batches                      ...     5712
Average number of points per batch           ...       63
Average number of grid points per atom       ...    11387
Initializing property integral containers    ... done (  0.0 sec)

SHARK setup successfully completed in   2.6 seconds

Maximum memory used throughout the entire STARTUP-calculation: 85.7 MB


           ************************************************************
           *        Program running with 16 parallel MPI-processes    *
           *              working on a common directory               *
           ************************************************************
-------------------------------------------------------------------------------
                                 ORCA GUESS
                   Start orbitals & Density for SCF / CASSCF
-------------------------------------------------------------------------------

------------
SCF SETTINGS
------------
Hamiltonian:
 Density Functional     Method          .... DFT(GTOs)
 Exchange Functional    Exchange        .... B973C
 Correlation Functional Correlation     .... B973C
 Gradients option       PostSCFGGA      .... off
 RI-approximation to the Coulomb term is turned on
   Number of AuxJ basis functions       .... 597


General Settings:
 Integral files         IntName         .... m1_00_Vitamin_B7-QM3_002-B97-3C-TZ
 Hartree-Fock type      HFTyp           .... RHF
 Total Charge           Charge          ....    0
 Multiplicity           Mult            ....    1
 Number of Electrons    NEL             ....  130
 Basis Dimension        Dim             ....  370
 Nuclear Repulsion      ENuc            ....   1370.7389367144 Eh

Convergence Acceleration:
 AO-DIIS                CNVDIIS         .... on
   Start iteration      DIISMaxIt       ....    12
   Startup error        DIISStart       ....  0.200000
   # of expansion vecs  DIISMaxEq       ....     5
   Bias factor          DIISBfac        ....   1.050
   Max. coefficient     DIISMaxC        ....  10.000
 MO-DIIS                CNVKDIIS        .... off
 Trust-Rad. Augm. Hess. CNVTRAH         .... off
 SOSCF                  CNVSOSCF        .... on
   Start iteration      SOSCFMaxIt      ....   150
   Startup grad/error   SOSCFStart      ....  0.003300
   Hessian update       SOSCFHessUp     .... L-BFGS
 Level Shifting         CNVShift        .... on
   Level shift para.    LevelShift      ....    0.2500
   Turn off err/grad.   ShiftErr        ....    0.0010
 Zerner damping         CNVZerner       .... off
 Static damping         CNVDamp         .... on
   Fraction old density DampFac         ....    0.7000
   Max. Damping (<1)    DampMax         ....    0.9800
   Min. Damping (>=0)   DampMin         ....    0.0000
   Turn off err/grad.   DampErr         ....    0.1000

SCF Procedure:
 Maximum # iterations   MaxIter         ....   800
 SCF integral mode      SCFMode         .... Direct
   Integral package                     .... SHARK and LIBINT hybrid scheme
 Reset frequency        DirectResetFreq ....    20
 Integral Threshold     Thresh          ....  2.500e-11 Eh
 Primitive CutOff       TCut            ....  2.500e-12 Eh

Convergence Tolerance:
 Convergence Check Mode ConvCheckMode   .... Total+1el-Energy
 Convergence forced     ConvForced      .... 0
 Energy Change          TolE            ....  1.000e-08 Eh
 1-El. energy change                    ....  1.000e-05 Eh
 Orbital Gradient       TolG            ....  1.000e-05
 Orbital Rotation angle TolX            ....  1.000e-05
 DIIS Error             TolErr          ....  5.000e-07

--------------------------------
INITIAL GUESS: MINIMAL BASIS EHT
--------------------------------
The minimal basis has 100 functions
EHT matrix was diagonalized
Basis set overlap was calculated now projecting the orbitals
Using GuessMode=FMatrix for the initial guess
C*T matrix was formed
Effective Fockian was calculated
Effective Fockian was diagonalized
Initial density was built
                      ------------------
                      INITIAL GUESS DONE
                      ------------------
             **** ENERGY FILE WAS UPDATED (m1_00_Vitamin_B7-QM3_002-B97-3C-TZ.en.tmp) ****
Finished Guess after   0.2 sec
Maximum memory used throughout the entire GUESS-calculation: 29.7 MB


           ************************************************************
           *        Program running with 16 parallel MPI-processes    *
           *              working on a common directory               *
           ************************************************************

-------------------------------------------------------------------------------------------
                                      ORCA LEAN-SCF
                              memory conserving SCF solver
-------------------------------------------------------------------------------------------

----------------------------------------D-I-I-S--------------------------------------------
Iteration    Energy (Eh)           Delta-E    RMSDP     MaxDP     DIISErr   Damp  Time(sec)
-------------------------------------------------------------------------------------------
               ***  Starting incremental Fock matrix formation  ***
    1    -1120.8933446117509902     0.00e+00  5.44e-03  1.62e-01  8.30e-01  0.700   0.5
    2    -1121.8571369936219071    -9.64e-01  3.99e-03  9.99e-02  5.56e-01  0.700   0.5
    3    -1122.3505216592091074    -4.93e-01  2.79e-03  7.86e-02  3.70e-01  0.700   0.5
    4    -1122.7124537880542903    -3.62e-01  2.02e-03  6.82e-02  2.49e-01  0.700   0.5
                               ***Turning on AO-DIIS***
    5    -1122.9677578168154923    -2.55e-01  1.47e-03  6.34e-02  1.68e-01  0.700   0.5
    6    -1123.1443016326500128    -1.77e-01  1.03e-03  4.05e-02  1.20e-01  0.700   0.5
    7    -1123.2687418062712368    -1.24e-01  7.33e-04  2.45e-02  8.50e-02  0.700   0.5
    8    -1123.3559484936338322    -8.72e-02  1.71e-03  5.76e-02  5.93e-02  0.000   0.5
    9    -1123.5594723841902578    -2.04e-01  1.48e-04  5.60e-03  8.78e-03  0.000   0.5
   10    -1123.5596614689441139    -1.89e-04  4.40e-05  1.87e-03  6.22e-03  0.000   0.5
                              *** Initializing SOSCF ***
---------------------------------------S-O-S-C-F--------------------------------------
Iteration    Energy (Eh)           Delta-E    RMSDP     MaxDP     MaxGrad    Time(sec)
--------------------------------------------------------------------------------------
   11    -1123.5597540710866724    -9.26e-05  2.22e-05  1.12e-03  1.11e-03     0.5
               *** Restarting incremental Fock matrix formation ***
   12    -1123.5597621892841289    -8.12e-06  2.11e-05  9.91e-04  1.48e-04     0.5
   13    -1123.5597605443929297     1.64e-06  9.32e-06  3.02e-04  4.22e-04     0.4
   14    -1123.5597625921866438    -2.05e-06  8.65e-06  4.42e-04  5.39e-05     0.4
   15    -1123.5597624528957112     1.39e-07  4.95e-06  2.30e-04  6.17e-05     0.4
   16    -1123.5597626641776969    -2.11e-07  5.26e-06  3.28e-04  1.14e-05     0.4
   17    -1123.5597626500396018     1.41e-08  1.74e-06  9.64e-05  2.42e-05     0.4
   18    -1123.5597626679548284    -1.79e-08  1.89e-06  1.06e-04  5.03e-06     0.4
   19    -1123.5597626748970015    -6.94e-09  1.00e-06  8.17e-05  8.00e-06     0.4
                 **** Energy Check signals convergence ****

               *****************************************************
               *                     SUCCESS                       *
               *           SCF CONVERGED AFTER  19 CYCLES          *
               *****************************************************

             **** ENERGY FILE WAS UPDATED (m1_00_Vitamin_B7-QM3_002-B97-3C-TZ.en.tmp) ****

----------------
TOTAL SCF ENERGY
----------------

Total Energy       :      -1123.55976267489700 Eh          -30573.61547 eV

Components:
Nuclear Repulsion  :       1370.73893671439032 Eh           37299.70275 eV
Electronic Energy  :      -2494.29869938928732 Eh          -67873.31822 eV
One Electron Energy:      -4263.51314628003456 Eh         -116016.09085 eV
Two Electron Energy:       1769.21444689074701 Eh           48142.77263 eV

Virial components:
Potential Energy   :      -2244.23567974429352 Eh          -61068.75752 eV
Kinetic Energy     :       1120.67591706939629 Eh           30495.14205 eV
Virial Ratio       :          2.00257330916242

DFT components:
N(Alpha)           :       64.999967416665 electrons
N(Beta)            :       64.999967416665 electrons
N(Total)           :      129.999934833329 electrons
E(XC)              :     -125.214799297877 Eh       

---------------
SCF CONVERGENCE
---------------

  Last Energy change         ...    6.9422e-09  Tolerance :   1.0000e-08
  Last MAX-Density change    ...    8.1702e-05  Tolerance :   1.0000e-07
  Last RMS-Density change    ...    1.0017e-06  Tolerance :   5.0000e-09
  Last DIIS Error            ...    1.1097e-03  Tolerance :   5.0000e-07
  Last Orbital Gradient      ...    8.0011e-06  Tolerance :   1.0000e-05
  Last Orbital Rotation      ...    9.7380e-06  Tolerance :   1.0000e-05


----------------
ORBITAL ENERGIES
----------------

  NO   OCC          E(Eh)            E(eV) 
   0   2.0000     -88.023606     -2395.2441 
   1   2.0000     -18.770912      -510.7825 
   2   2.0000     -18.725321      -509.5419 
   3   2.0000     -18.721504      -509.4380 
   4   2.0000     -14.019069      -381.4782 
   5   2.0000     -14.005072      -381.0974 
   6   2.0000     -10.014564      -272.5101 
   7   2.0000     -10.009865      -272.3823 
   8   2.0000      -9.954638      -270.8795 
   9   2.0000      -9.951051      -270.7819 
  10   2.0000      -9.932219      -270.2694 
  11   2.0000      -9.929427      -270.1935 
  12   2.0000      -9.899745      -269.3858 
  13   2.0000      -9.898742      -269.3585 
  14   2.0000      -9.892724      -269.1947 
  15   2.0000      -9.890150      -269.1247 
  16   2.0000      -7.715329      -209.9448 
  17   2.0000      -5.746997      -156.3837 
  18   2.0000      -5.742566      -156.2632 
  19   2.0000      -5.733456      -156.0153 
  20   2.0000      -1.020514       -27.7696 
  21   2.0000      -0.987955       -26.8836 
  22   2.0000      -0.932807       -25.3830 
  23   2.0000      -0.911264       -24.7968 
  24   2.0000      -0.831781       -22.6339 
  25   2.0000      -0.792366       -21.5614 
  26   2.0000      -0.748744       -20.3744 
  27   2.0000      -0.708838       -19.2885 
  28   2.0000      -0.671409       -18.2700 
  29   2.0000      -0.664458       -18.0808 
  30   2.0000      -0.607948       -16.5431 
  31   2.0000      -0.590224       -16.0608 
  32   2.0000      -0.565123       -15.3778 
  33   2.0000      -0.553095       -15.0505 
  34   2.0000      -0.534434       -14.5427 
  35   2.0000      -0.526709       -14.3325 
  36   2.0000      -0.493073       -13.4172 
  37   2.0000      -0.476558       -12.9678 
  38   2.0000      -0.461521       -12.5586 
  39   2.0000      -0.451837       -12.2951 
  40   2.0000      -0.433564       -11.7979 
  41   2.0000      -0.425733       -11.5848 
  42   2.0000      -0.416716       -11.3394 
  43   2.0000      -0.413552       -11.2533 
  44   2.0000      -0.403205       -10.9718 
  45   2.0000      -0.393761       -10.7148 
  46   2.0000      -0.390229       -10.6187 
  47   2.0000      -0.378872       -10.3096 
  48   2.0000      -0.368522       -10.0280 
  49   2.0000      -0.356490        -9.7006 
  50   2.0000      -0.350010        -9.5243 
  51   2.0000      -0.346998        -9.4423 
  52   2.0000      -0.335128        -9.1193 
  53   2.0000      -0.323542        -8.8040 
  54   2.0000      -0.315032        -8.5725 
  55   2.0000      -0.308619        -8.3979 
  56   2.0000      -0.303839        -8.2679 
  57   2.0000      -0.295332        -8.0364 
  58   2.0000      -0.286698        -7.8015 
  59   2.0000      -0.271586        -7.3902 
  60   2.0000      -0.244355        -6.6492 
  61   2.0000      -0.239131        -6.5071 
  62   2.0000      -0.225197        -6.1279 
  63   2.0000      -0.215977        -5.8770 
  64   2.0000      -0.197745        -5.3809 
  65   0.0000      -0.028545        -0.7767 
  66   0.0000      -0.011790        -0.3208 
  67   0.0000       0.004593         0.1250 
  68   0.0000       0.010378         0.2824 
  69   0.0000       0.025240         0.6868 
  70   0.0000       0.035338         0.9616 
  71   0.0000       0.042108         1.1458 
  72   0.0000       0.046640         1.2691 
  73   0.0000       0.060727         1.6525 
  74   0.0000       0.065378         1.7790 
  75   0.0000       0.066944         1.8216 
*Only the first 10 virtual orbitals were printed.

                    ********************************
                    * MULLIKEN POPULATION ANALYSIS *
                    ********************************

-----------------------
MULLIKEN ATOMIC CHARGES
-----------------------
   0 S :   -0.011757
   1 O :   -0.535443
   2 O :   -0.455877
   3 O :   -0.483802
   4 N :   -0.345936
   5 N :   -0.391237
   6 C :   -0.329767
   7 C :   -0.067014
   8 C :    0.009050
   9 C :   -0.385688
  10 C :   -0.459239
  11 C :   -0.321732
  12 C :    0.402300
  13 C :   -0.366495
  14 C :   -0.291202
  15 C :    0.386147
  16 H :    0.189821
  17 H :    0.181014
  18 H :    0.235129
  19 H :    0.210540
  20 H :    0.198125
  21 H :    0.194739
  22 H :    0.191160
  23 H :    0.372757
  24 H :    0.352231
  25 H :    0.191572
  26 H :    0.183794
  27 H :    0.185555
  28 H :    0.182065
  29 H :    0.173485
  30 H :    0.181345
  31 H :    0.424361
Sum of atomic charges:    0.0000000

--------------------------------
MULLIKEN REDUCED ORBITAL CHARGES
--------------------------------
  0 S s       :     5.906497  s :     5.906497
      pz      :     3.051410  p :    10.021031
      px      :     3.269615
      py      :     3.700006
      dz2     :     0.012523  d :     0.084229
      dxz     :     0.034123
      dyz     :     0.011782
      dx2y2   :     0.014497
      dxy     :     0.011304

  1 O s       :     3.853183  s :     3.853183
      pz      :     1.731768  p :     4.649804
      px      :     1.376208
      py      :     1.541827
      dz2     :     0.009261  d :     0.032457
      dxz     :     0.002406
      dyz     :     0.004701
      dx2y2   :     0.006258
      dxy     :     0.009830

  2 O s       :     3.753058  s :     3.753058
      pz      :     1.323300  p :     4.674050
      px      :     1.712810
      py      :     1.637940
      dz2     :     0.005822  d :     0.028769
      dxz     :     0.002203
      dyz     :     0.009141
      dx2y2   :     0.007432
      dxy     :     0.004171

  3 O s       :     3.847474  s :     3.847474
      pz      :     1.753142  p :     4.593381
      px      :     1.515546
      py      :     1.324692
      dz2     :     0.008202  d :     0.042948
      dxz     :     0.008111
      dyz     :     0.005502
      dx2y2   :     0.015814
      dxy     :     0.005319

  4 N s       :     3.334732  s :     3.334732
      pz      :     1.334172  p :     3.971127
      px      :     1.179677
      py      :     1.457278
      dz2     :     0.006976  d :     0.040077
      dxz     :     0.012899
      dyz     :     0.006296
      dx2y2   :     0.007538
      dxy     :     0.006368

  5 N s       :     3.330431  s :     3.330431
      pz      :     1.238939  p :     4.020723
      px      :     1.236760
      py      :     1.545024
      dz2     :     0.009446  d :     0.040083
      dxz     :     0.011043
      dyz     :     0.006149
      dx2y2   :     0.006022
      dxy     :     0.007423

  6 C s       :     3.269988  s :     3.269988
      pz      :     0.948302  p :     2.994202
      px      :     0.849615
      py      :     1.196286
      dz2     :     0.013761  d :     0.065577
      dxz     :     0.012549
      dyz     :     0.007390
      dx2y2   :     0.020652
      dxy     :     0.011225

  7 C s       :     3.088198  s :     3.088198
      pz      :     1.078490  p :     2.914146
      px      :     0.859541
      py      :     0.976115
      dz2     :     0.011431  d :     0.064670
      dxz     :     0.009118
      dyz     :     0.012928
      dx2y2   :     0.014851
      dxy     :     0.016342

  8 C s       :     2.942055  s :     2.942055
      pz      :     0.993588  p :     2.998426
      px      :     0.924993
      py      :     1.079845
      dz2     :     0.005495  d :     0.050469
      dxz     :     0.011597
      dyz     :     0.014806
      dx2y2   :     0.009861
      dxy     :     0.008710

  9 C s       :     3.165107  s :     3.165107
      pz      :     1.077794  p :     3.176473
      px      :     1.007927
      py      :     1.090752
      dz2     :     0.009640  d :     0.044108
      dxz     :     0.010501
      dyz     :     0.004531
      dx2y2   :     0.010693
      dxy     :     0.008743

 10 C s       :     3.227463  s :     3.227463
      pz      :     1.046159  p :     3.186715
      px      :     1.141988
      py      :     0.998568
      dz2     :     0.008354  d :     0.045061
      dxz     :     0.009653
      dyz     :     0.010093
      dx2y2   :     0.005072
      dxy     :     0.011889

 11 C s       :     3.150928  s :     3.150928
      pz      :     1.025474  p :     3.126704
      px      :     1.081539
      py      :     1.019692
      dz2     :     0.009205  d :     0.044099
      dxz     :     0.011430
      dyz     :     0.006362
      dx2y2   :     0.004604
      dxy     :     0.012499

 12 C s       :     2.990220  s :     2.990220
      pz      :     0.810839  p :     2.474444
      px      :     0.835474
      py      :     0.828131
      dz2     :     0.018761  d :     0.133037
      dxz     :     0.043131
      dyz     :     0.017944
      dx2y2   :     0.028668
      dxy     :     0.024532

 13 C s       :     3.226461  s :     3.226461
      pz      :     1.142106  p :     3.096007
      px      :     0.950463
      py      :     1.003438
      dz2     :     0.005430  d :     0.044028
      dxz     :     0.007587
      dyz     :     0.012758
      dx2y2   :     0.009859
      dxy     :     0.008394

 14 C s       :     3.134914  s :     3.134914
      pz      :     0.999592  p :     3.112974
      px      :     1.001808
      py      :     1.111574
      dz2     :     0.007102  d :     0.043314
      dxz     :     0.008229
      dyz     :     0.011794
      dx2y2   :     0.007263
      dxy     :     0.008926

 15 C s       :     3.091183  s :     3.091183
      pz      :     0.844595  p :     2.398270
      px      :     0.790644
      py      :     0.763031
      dz2     :     0.019718  d :     0.124399
      dxz     :     0.009902
      dyz     :     0.047302
      dx2y2   :     0.018652
      dxy     :     0.028825

 16 H s       :     0.810179  s :     0.810179

 17 H s       :     0.818986  s :     0.818986

 18 H s       :     0.764871  s :     0.764871

 19 H s       :     0.789460  s :     0.789460

 20 H s       :     0.801875  s :     0.801875

 21 H s       :     0.805261  s :     0.805261

 22 H s       :     0.808840  s :     0.808840

 23 H s       :     0.627243  s :     0.627243

 24 H s       :     0.647769  s :     0.647769

 25 H s       :     0.808428  s :     0.808428

 26 H s       :     0.816206  s :     0.816206

 27 H s       :     0.814445  s :     0.814445

 28 H s       :     0.817935  s :     0.817935

 29 H s       :     0.826515  s :     0.826515

 30 H s       :     0.818655  s :     0.818655

 31 H s       :     0.575639  s :     0.575639



                     *******************************
                     * LOEWDIN POPULATION ANALYSIS *
                     *******************************

----------------------
LOEWDIN ATOMIC CHARGES
----------------------
   0 S :    0.373802
   1 O :   -0.568629
   2 O :   -0.524993
   3 O :   -0.536369
   4 N :   -0.218030
   5 N :   -0.240270
   6 C :   -0.109046
   7 C :   -0.115919
   8 C :   -0.348120
   9 C :   -0.446128
  10 C :   -0.316741
  11 C :   -0.297296
  12 C :    0.286914
  13 C :   -0.268715
  14 C :   -0.220017
  15 C :    0.347515
  16 H :    0.165127
  17 H :    0.161949
  18 H :    0.168197
  19 H :    0.162253
  20 H :    0.158622
  21 H :    0.161128
  22 H :    0.165095
  23 H :    0.339241
  24 H :    0.298928
  25 H :    0.179867
  26 H :    0.156648
  27 H :    0.158309
  28 H :    0.167551
  29 H :    0.180160
  30 H :    0.177232
  31 H :    0.401735

-------------------------------
LOEWDIN REDUCED ORBITAL CHARGES
-------------------------------
  0 S s       :     5.420350  s :     5.420350
      pz      :     3.085900  p :    10.105442
      px      :     3.318737
      py      :     3.700805
      dz2     :     0.015085  d :     0.100406
      dxz     :     0.041386
      dyz     :     0.014626
      dx2y2   :     0.016024
      dxy     :     0.013286

  1 O s       :     3.527091  s :     3.527091
      pz      :     1.679462  p :     4.738371
      px      :     1.491367
      py      :     1.567543
      dz2     :     0.055424  d :     0.303167
      dxz     :     0.069589
      dyz     :     0.041207
      dx2y2   :     0.068488
      dxy     :     0.068459

  2 O s       :     3.491212  s :     3.491212
      pz      :     1.387651  p :     4.711200
      px      :     1.677509
      py      :     1.646040
      dz2     :     0.101102  d :     0.322581
      dxz     :     0.045300
      dyz     :     0.088002
      dx2y2   :     0.047598
      dxy     :     0.040580

  3 O s       :     3.528894  s :     3.528894
      pz      :     1.714263  p :     4.692715
      px      :     1.493570
      py      :     1.484882
      dz2     :     0.044905  d :     0.314761
      dxz     :     0.042316
      dyz     :     0.082693
      dx2y2   :     0.085745
      dxy     :     0.059100

  4 N s       :     3.106651  s :     3.106651
      pz      :     1.326951  p :     4.036053
      px      :     1.245353
      py      :     1.463750
      dz2     :     0.013049  d :     0.075326
      dxz     :     0.022375
      dyz     :     0.011718
      dx2y2   :     0.014784
      dxy     :     0.013400

  5 N s       :     3.114458  s :     3.114458
      pz      :     1.269268  p :     4.050895
      px      :     1.250405
      py      :     1.531222
      dz2     :     0.016704  d :     0.074917
      dxz     :     0.022292
      dyz     :     0.010026
      dx2y2   :     0.011713
      dxy     :     0.014182

  6 C s       :     2.872805  s :     2.872805
      pz      :     1.041893  p :     3.107246
      px      :     0.964305
      py      :     1.101048
      dz2     :     0.027350  d :     0.128996
      dxz     :     0.026990
      dyz     :     0.013234
      dx2y2   :     0.039627
      dxy     :     0.021794

  7 C s       :     2.878086  s :     2.878086
      pz      :     1.075242  p :     3.111030
      px      :     0.985685
      py      :     1.050103
      dz2     :     0.024581  d :     0.126803
      dxz     :     0.016083
      dyz     :     0.023384
      dx2y2   :     0.027864
      dxy     :     0.034892

  8 C s       :     2.962997  s :     2.962997
      pz      :     1.095296  p :     3.287601
      px      :     1.063134
      py      :     1.129172
      dz2     :     0.008857  d :     0.097521
      dxz     :     0.025151
      dyz     :     0.026570
      dx2y2   :     0.019990
      dxy     :     0.016953

  9 C s       :     3.014007  s :     3.014007
      pz      :     1.118797  p :     3.350997
      px      :     1.088135
      py      :     1.144066
      dz2     :     0.016124  d :     0.081124
      dxz     :     0.020147
      dyz     :     0.008280
      dx2y2   :     0.018622
      dxy     :     0.017951

 10 C s       :     2.935027  s :     2.935027
      pz      :     1.077533  p :     3.299987
      px      :     1.132536
      py      :     1.089919
      dz2     :     0.015753  d :     0.081726
      dxz     :     0.017226
      dyz     :     0.018978
      dx2y2   :     0.009927
      dxy     :     0.019843

 11 C s       :     2.929663  s :     2.929663
      pz      :     1.079371  p :     3.289129
      px      :     1.101269
      py      :     1.108489
      dz2     :     0.016604  d :     0.078503
      dxz     :     0.020240
      dyz     :     0.011803
      dx2y2   :     0.008195
      dxy     :     0.021662

 12 C s       :     2.734492  s :     2.734492
      pz      :     0.888284  p :     2.689392
      px      :     0.944535
      py      :     0.856574
      dz2     :     0.039702  d :     0.289201
      dxz     :     0.095429
      dyz     :     0.038560
      dx2y2   :     0.060987
      dxy     :     0.054524

 13 C s       :     2.931312  s :     2.931312
      pz      :     1.123016  p :     3.258701
      px      :     1.041860
      py      :     1.093824
      dz2     :     0.009426  d :     0.078703
      dxz     :     0.013227
      dyz     :     0.020879
      dx2y2   :     0.018855
      dxy     :     0.016316

 14 C s       :     2.920002  s :     2.920002
      pz      :     1.056923  p :     3.224777
      px      :     1.062586
      py      :     1.105269
      dz2     :     0.012739  d :     0.075239
      dxz     :     0.014785
      dyz     :     0.020044
      dx2y2   :     0.013045
      dxy     :     0.014626

 15 C s       :     2.742235  s :     2.742235
      pz      :     0.913238  p :     2.633440
      px      :     0.744658
      py      :     0.975544
      dz2     :     0.042675  d :     0.276810
      dxz     :     0.019230
      dyz     :     0.107403
      dx2y2   :     0.050779
      dxy     :     0.056723

 16 H s       :     0.834873  s :     0.834873

 17 H s       :     0.838051  s :     0.838051

 18 H s       :     0.831803  s :     0.831803

 19 H s       :     0.837747  s :     0.837747

 20 H s       :     0.841378  s :     0.841378

 21 H s       :     0.838872  s :     0.838872

 22 H s       :     0.834905  s :     0.834905

 23 H s       :     0.660759  s :     0.660759

 24 H s       :     0.701072  s :     0.701072

 25 H s       :     0.820133  s :     0.820133

 26 H s       :     0.843352  s :     0.843352

 27 H s       :     0.841691  s :     0.841691

 28 H s       :     0.832449  s :     0.832449

 29 H s       :     0.819840  s :     0.819840

 30 H s       :     0.822768  s :     0.822768

 31 H s       :     0.598265  s :     0.598265



                      *****************************
                      * MAYER POPULATION ANALYSIS *
                      *****************************

  NA   - Mulliken gross atomic population
  ZA   - Total nuclear charge
  QA   - Mulliken gross atomic charge
  VA   - Mayer's total valence
  BVA  - Mayer's bonded valence
  FA   - Mayer's free valence

  ATOM       NA         ZA         QA         VA         BVA        FA
  0 S     16.0118    16.0000    -0.0118     2.1228     2.1228     0.0000
  1 O      8.5354     8.0000    -0.5354     1.9963     1.9963     0.0000
  2 O      8.4559     8.0000    -0.4559     1.8419     1.8419     0.0000
  3 O      8.4838     8.0000    -0.4838     2.0328     2.0328    -0.0000
  4 N      7.3459     7.0000    -0.3459     2.8643     2.8643    -0.0000
  5 N      7.3912     7.0000    -0.3912     2.9518     2.9518     0.0000
  6 C      6.3298     6.0000    -0.3298     4.0257     4.0257     0.0000
  7 C      6.0670     6.0000    -0.0670     3.8039     3.8039     0.0000
  8 C      5.9910     6.0000     0.0090     3.3936     3.3936     0.0000
  9 C      6.3857     6.0000    -0.3857     3.7886     3.7886     0.0000
 10 C      6.4592     6.0000    -0.4592     3.7564     3.7564    -0.0000
 11 C      6.3217     6.0000    -0.3217     3.5935     3.5935    -0.0000
 12 C      5.5977     6.0000     0.4023     4.3196     4.3196     0.0000
 13 C      6.3665     6.0000    -0.3665     3.7500     3.7500     0.0000
 14 C      6.2912     6.0000    -0.2912     3.6820     3.6820    -0.0000
 15 C      5.6139     6.0000     0.3861     3.9738     3.9738    -0.0000
 16 H      0.8102     1.0000     0.1898     0.9551     0.9551     0.0000
 17 H      0.8190     1.0000     0.1810     0.9530     0.9530     0.0000
 18 H      0.7649     1.0000     0.2351     0.9123     0.9123     0.0000
 19 H      0.7895     1.0000     0.2105     0.9272     0.9272     0.0000
 20 H      0.8019     1.0000     0.1981     0.9473     0.9473     0.0000
 21 H      0.8053     1.0000     0.1947     0.9509     0.9509    -0.0000
 22 H      0.8088     1.0000     0.1912     0.9519     0.9519    -0.0000
 23 H      0.6272     1.0000     0.3728     0.8798     0.8798     0.0000
 24 H      0.6478     1.0000     0.3522     0.8593     0.8593     0.0000
 25 H      0.8084     1.0000     0.1916     0.9828     0.9828    -0.0000
 26 H      0.8162     1.0000     0.1838     0.9403     0.9403    -0.0000
 27 H      0.8144     1.0000     0.1856     0.9386     0.9386     0.0000
 28 H      0.8179     1.0000     0.1821     0.9533     0.9533     0.0000
 29 H      0.8265     1.0000     0.1735     0.9551     0.9551    -0.0000
 30 H      0.8187     1.0000     0.1813     0.9543     0.9543    -0.0000
 31 H      0.5756     1.0000     0.4244     0.8296     0.8296     0.0000

  Mayer bond orders larger than 0.100000
B(  0-S ,  8-C ) :   0.9506 B(  0-S ,  9-C ) :   1.0255 B(  1-O , 12-C ) :   1.7356 
B(  1-O , 31-H ) :   0.1987 B(  2-O , 15-C ) :   1.1739 B(  2-O , 31-H ) :   0.6198 
B(  3-O , 15-C ) :   1.8404 B(  3-O , 23-H ) :   0.1211 B(  4-N ,  6-C ) :   0.9794 
B(  4-N , 12-C ) :   1.2286 B(  4-N , 23-H ) :   0.7203 B(  5-N ,  7-C ) :   0.9594 
B(  5-N , 12-C ) :   1.1905 B(  5-N , 24-H ) :   0.8175 B(  6-C ,  7-C ) :   1.0660 
B(  6-C ,  8-C ) :   0.8990 B(  6-C , 16-H ) :   0.9261 B(  7-C ,  9-C ) :   0.9845 
B(  7-C , 17-H ) :   0.8739 B(  8-C , 10-C ) :   0.8165 B(  8-C , 18-H ) :   0.9079 
B(  9-C , 19-H ) :   0.9140 B(  9-C , 20-H ) :   0.9487 B( 10-C , 11-C ) :   0.9058 
B( 10-C , 21-H ) :   0.9025 B( 10-C , 22-H ) :   1.0033 B( 11-C , 13-C ) :   0.8789 
B( 11-C , 25-H ) :   0.9814 B( 11-C , 26-H ) :   0.9168 B( 13-C , 14-C ) :   0.9211 
B( 13-C , 27-H ) :   0.9367 B( 13-C , 28-H ) :   0.9731 B( 14-C , 15-C ) :   0.9652 
B( 14-C , 29-H ) :   0.9360 B( 14-C , 30-H ) :   0.9592 


------------------
HIRSHFELD ANALYSIS
------------------

Total integrated alpha density =     64.999967417
Total integrated beta density  =     64.999967417

  ATOM     CHARGE      SPIN    
   0 S   -0.075652    0.000000
   1 O   -0.287024    0.000000
   2 O   -0.177761    0.000000
   3 O   -0.267958    0.000000
   4 N   -0.120296    0.000000
   5 N   -0.123056    0.000000
   6 C    0.039495    0.000000
   7 C    0.039370    0.000000
   8 C   -0.006542    0.000000
   9 C   -0.042379    0.000000
  10 C   -0.052359    0.000000
  11 C   -0.046831    0.000000
  12 C    0.196844    0.000000
  13 C   -0.034949    0.000000
  14 C   -0.044183    0.000000
  15 C    0.219129    0.000000
  16 H    0.035492    0.000000
  17 H    0.034297    0.000000
  18 H    0.038873    0.000000
  19 H    0.043022    0.000000
  20 H    0.031640    0.000000
  21 H    0.024944    0.000000
  22 H    0.021258    0.000000
  23 H    0.104129    0.000000
  24 H    0.143680    0.000000
  25 H    0.018684    0.000000
  26 H    0.026193    0.000000
  27 H    0.030923    0.000000
  28 H    0.028130    0.000000
  29 H    0.039825    0.000000
  30 H    0.038160    0.000000
  31 H    0.124966    0.000000

  TOTAL   0.000065    0.000000

-------
TIMINGS
-------

Total SCF time: 0 days 0 hours 0 min 10 sec 

Total time                  ....      10.262 sec
Sum of individual times     ....      10.164 sec  ( 99.0%)

SCF preparation             ....       0.182 sec  (  1.8%)
Fock matrix formation       ....       8.428 sec  ( 82.1%)
  Startup                   ....       0.020 sec  (  0.2% of F)
  Split-RI-J                ....       1.551 sec  ( 18.4% of F)
  XC integration            ....       6.510 sec  ( 77.2% of F)
    XC Preparation          ....       0.000 sec  (  0.0% of XC)
    Basis function eval.    ....       1.574 sec  ( 24.2% of XC)
    Density eval.           ....       1.727 sec  ( 26.5% of XC)
    XC-Functional eval.     ....       0.155 sec  (  2.4% of XC)
    XC-Potential eval.      ....       1.423 sec  ( 21.9% of XC)
Diagonalization             ....       0.000 sec  (  0.0%)
Density matrix formation    ....       0.077 sec  (  0.7%)
Total Energy calculation    ....       0.038 sec  (  0.4%)
Population analysis         ....       0.764 sec  (  7.4%)
Orbital Transformation      ....       0.054 sec  (  0.5%)
Orbital Orthonormalization  ....       0.000 sec  (  0.0%)
DIIS solution               ....       0.435 sec  (  4.2%)
SOSCF solution              ....       0.185 sec  (  1.8%)
Finished LeanSCF after  10.3 sec

[...]
 25:    529.33   0.002325   11.75  0.001371  ( 0.022664 -0.001324 -0.029246)
 26:    591.53   0.002728   13.79  0.001439  ( 0.009498 -0.006746  0.036105)
 27:    595.82   0.000180    0.91  0.000094  ( 0.004633  0.004499  0.007258)
 28:    668.81   0.008930   45.13  0.004167  ( 0.004860  0.062734 -0.014411)
 29:    701.37   0.003550   17.94  0.001580  ( 0.001228 -0.039626  0.002826)
 30:    721.13   0.000386    1.95  0.000167  (-0.007749  0.003528 -0.009724)
 31:    723.85   0.003597   18.18  0.001551  (-0.016478  0.033406 -0.012773)
 32:    740.14   0.001736    8.77  0.000732  ( 0.022001 -0.009196  0.012785)
 33:    757.81   0.015693   79.31  0.006463  ( 0.005035 -0.064540  0.047664)
 34:    780.46   0.006734   34.03  0.002693  ( 0.012534 -0.047481  0.016761)
 35:    797.91   0.005807   29.35  0.002271  ( 0.033747 -0.032092 -0.010122)
 36:    799.71   0.000330    1.67  0.000129  ( 0.008565 -0.007370  0.000973)
 37:    812.86   0.003725   18.83  0.001430  ( 0.026921  0.003701 -0.026299)
 38:    883.84   0.007888   39.86  0.002785  (-0.045552 -0.014640  0.022265)
 39:    910.65   0.037648  190.26  0.012901  ( 0.103825  0.005656 -0.045714)
 40:    915.18   0.001875    9.47  0.000639  ( 0.023868 -0.004508 -0.007015)
 41:    936.18   0.004542   22.95  0.001514  ( 0.033147  0.010526 -0.017451)
 42:    958.31   0.000838    4.23  0.000273  ( 0.000211  0.003709  0.016091)
 43:    972.92   0.000155    0.78  0.000050  (-0.003158  0.001083  0.006213)
 44:   1000.70   0.000618    3.12  0.000193  ( 0.012705 -0.005105 -0.002301)
 45:   1041.71   0.000443    2.24  0.000133  ( 0.005120  0.007471 -0.007114)
 46:   1045.82   0.002670   13.49  0.000797  ( 0.017609  0.006525  0.021070)
 47:   1066.85   0.001302    6.58  0.000381  ( 0.013124 -0.005077 -0.013519)
 48:   1074.96   0.006337   32.02  0.001840  (-0.024465 -0.014875 -0.031933)
 49:   1078.11   0.001088    5.50  0.000315  (-0.004210 -0.016711 -0.004222)
 50:   1107.40   0.002934   14.83  0.000827  ( 0.028640 -0.001633  0.001986)
 51:   1122.73   0.001737    8.78  0.000483  (-0.020378 -0.007373  0.003620)
 52:   1155.15   0.005413   27.35  0.001462  ( 0.012653  0.024575  0.026424)
 53:   1173.34   0.001278    6.46  0.000340  (-0.010981 -0.012646 -0.007710)
 54:   1188.79   0.001911    9.66  0.000502  (-0.018686 -0.011241 -0.005114)
 55:   1223.59   0.000524    2.65  0.000134  (-0.007258  0.005971 -0.006736)
 56:   1234.12   0.002017   10.19  0.000510  ( 0.002927 -0.004622 -0.021908)
 57:   1247.90   0.004564   23.07  0.001141  ( 0.017621  0.017140  0.023175)
 58:   1271.79   0.015302   77.33  0.003755  ( 0.004748  0.027101  0.054751)
 59:   1279.49   0.005885   29.74  0.001435  ( 0.032616  0.005077  0.018595)
 60:   1288.39   0.009189   46.44  0.002226  (-0.022146 -0.002982 -0.041551)
 61:   1302.56   0.003737   18.88  0.000895  ( 0.015183 -0.010673 -0.023470)
 62:   1338.75   0.000127    0.64  0.000030  ( 0.001465 -0.003288 -0.004094)
 63:   1341.85   0.000332    1.68  0.000077  (-0.004961  0.001878  0.007009)
 64:   1351.28   0.005633   28.46  0.001301  ( 0.033616  0.003891 -0.012473)
 65:   1357.98   0.001943    9.82  0.000446  (-0.000010 -0.000011  0.021129)
 66:   1366.71   0.001011    5.11  0.000231  ( 0.013871 -0.002948 -0.005458)
 67:   1379.41   0.000986    4.98  0.000223  (-0.006614 -0.008993 -0.009921)
 68:   1394.32   0.000336    1.70  0.000075  (-0.004202 -0.002512 -0.007165)
 69:   1399.55   0.000469    2.37  0.000104  (-0.002239 -0.001290 -0.009889)
 70:   1426.71   0.013723   69.35  0.003002  ( 0.003484 -0.016647 -0.052080)
 71:   1436.08   0.002155   10.89  0.000468  ( 0.005167 -0.014050 -0.015627)
 72:   1444.82   0.002913   14.72  0.000629  ( 0.004280 -0.017279 -0.017668)
 73:   1484.24   0.002016   10.19  0.000424  (-0.008958  0.008450  0.016497)
 74:   1486.38   0.001188    6.00  0.000249  ( 0.013322 -0.008478 -0.000027)
 75:   1492.24   0.000179    0.90  0.000037  (-0.003611  0.004493 -0.002044)
 76:   1502.69   0.001341    6.78  0.000278  ( 0.000316  0.011930 -0.011662)
 77:   1505.64   0.001596    8.06  0.000331  (-0.006208 -0.013448 -0.010553)
 78:   1714.05   0.039446  199.34  0.007182  (-0.076566  0.036010  0.004747)
 79:   1747.27   0.128226  648.00  0.022901  (-0.108274 -0.104842  0.013638)
 80:   2991.55   0.009175   46.36  0.000957  (-0.004891 -0.017655  0.024928)
 81:   2992.62   0.004094   20.69  0.000427  (-0.012136 -0.013351 -0.010066)
 82:   3001.23   0.004883   24.68  0.000508  ( 0.006611 -0.018299  0.011366)
 83:   3022.57   0.001651    8.34  0.000170  (-0.009815 -0.001756 -0.008429)
 84:   3027.42   0.002777   14.04  0.000286  (-0.014767 -0.004971  0.006597)
 85:   3031.20   0.004684   23.67  0.000482  ( 0.003799 -0.015218 -0.015370)
 86:   3035.09   0.005833   29.48  0.000600  ( 0.010744 -0.018875  0.011317)
 87:   3041.78   0.002409   12.18  0.000247  (-0.007982  0.010060 -0.009070)
 88:   3044.04   0.009859   49.82  0.001011  ( 0.009465 -0.006590 -0.029626)
 89:   3057.88   0.007382   37.31  0.000753  ( 0.007012  0.026528  0.000720)
 90:   3086.54   0.004432   22.40  0.000448  ( 0.001768  0.016603  0.013014)
 91:   3095.02   0.003417   17.27  0.000344  ( 0.009229  0.007696 -0.014146)
 92:   3098.73   0.002813   14.22  0.000283  ( 0.016615  0.001843  0.001957)
 93:   3188.42   0.128294  648.35  0.012557  ( 0.016998  0.032760 -0.105804)
 94:   3422.94   0.069791  352.70  0.006363  (-0.037003 -0.010001  0.069954)
 95:   3600.70   0.006891   34.83  0.000597  ( 0.000400  0.010405  0.022110)

* The epsilon (eps) is given for a Dirac delta lineshape.
** The dipole moment derivative (T) already includes vibrational overlap.

The first frequency considered to be a vibration is 6
The total number of vibrations considered is 90


--------------------------
THERMOCHEMISTRY AT 298.15K
--------------------------

Temperature         ...   298.15 K
Pressure            ...     1.00 atm
Total Mass          ...   244.31 AMU
Quasi RRHO          ...     True
Cut-Off Frequency   ...     1.00 cm^-1

Throughout the following assumptions are being made:
  (1) The electronic state is orbitally nondegenerate
  (2) There are no thermally accessible electronically excited states
  (3) Hindered rotations indicated by low frequency modes are not
      treated as such but are treated as vibrations and this may
      cause some error
  (4) All equations used are the standard statistical mechanics
      equations for an ideal gas
  (5) All vibrations are strictly harmonic

freq.      47.23  E(vib)   ...       0.53 
freq.      84.75  E(vib)   ...       0.48 
freq.      98.40  E(vib)   ...       0.46 
freq.     110.12  E(vib)   ...       0.45 
freq.     118.56  E(vib)   ...       0.44 
freq.     141.12  E(vib)   ...       0.41 
freq.     151.44  E(vib)   ...       0.40 
freq.     172.71  E(vib)   ...       0.38 
freq.     193.07  E(vib)   ...       0.36 
freq.     247.56  E(vib)   ...       0.31 
freq.     251.73  E(vib)   ...       0.30 
freq.     315.75  E(vib)   ...       0.25 
freq.     330.37  E(vib)   ...       0.24 
freq.     379.30  E(vib)   ...       0.21 
freq.     410.39  E(vib)   ...       0.19 
freq.     435.57  E(vib)   ...       0.17 
freq.     448.65  E(vib)   ...       0.17 
freq.     459.81  E(vib)   ...       0.16 
freq.     510.78  E(vib)   ...       0.14 
freq.     529.33  E(vib)   ...       0.13 
freq.     591.53  E(vib)   ...       0.10 
freq.     595.82  E(vib)   ...       0.10 
freq.     668.81  E(vib)   ...       0.08 
freq.     701.37  E(vib)   ...       0.07 
freq.     721.13  E(vib)   ...       0.07 
freq.     723.85  E(vib)   ...       0.06 
freq.     740.14  E(vib)   ...       0.06 
freq.     757.81  E(vib)   ...       0.06 
freq.     780.46  E(vib)   ...       0.05 
freq.     797.91  E(vib)   ...       0.05 
freq.     799.71  E(vib)   ...       0.05 
freq.     812.86  E(vib)   ...       0.05 
freq.     883.84  E(vib)   ...       0.04 
freq.     910.65  E(vib)   ...       0.03 
freq.     915.18  E(vib)   ...       0.03 
freq.     936.18  E(vib)   ...       0.03 
freq.     958.31  E(vib)   ...       0.03 
freq.     972.92  E(vib)   ...       0.03 
freq.    1000.70  E(vib)   ...       0.02 
freq.    1041.71  E(vib)   ...       0.02 
freq.    1045.82  E(vib)   ...       0.02 
freq.    1066.85  E(vib)   ...       0.02 
freq.    1074.96  E(vib)   ...       0.02 
freq.    1078.11  E(vib)   ...       0.02 
freq.    1107.40  E(vib)   ...       0.02 
freq.    1122.73  E(vib)   ...       0.01 
freq.    1155.15  E(vib)   ...       0.01 
freq.    1173.34  E(vib)   ...       0.01 
freq.    1188.79  E(vib)   ...       0.01 
freq.    1223.59  E(vib)   ...       0.01 
freq.    1234.12  E(vib)   ...       0.01 
freq.    1247.90  E(vib)   ...       0.01 
freq.    1271.79  E(vib)   ...       0.01 
freq.    1279.49  E(vib)   ...       0.01 
freq.    1288.39  E(vib)   ...       0.01 
freq.    1302.56  E(vib)   ...       0.01 
freq.    1338.75  E(vib)   ...       0.01 
freq.    1341.85  E(vib)   ...       0.01 
freq.    1351.28  E(vib)   ...       0.01 
freq.    1357.98  E(vib)   ...       0.01 
freq.    1366.71  E(vib)   ...       0.01 
freq.    1379.41  E(vib)   ...       0.01 
freq.    1394.32  E(vib)   ...       0.00 
freq.    1399.55  E(vib)   ...       0.00 
freq.    1426.71  E(vib)   ...       0.00 
freq.    1436.08  E(vib)   ...       0.00 
freq.    1444.82  E(vib)   ...       0.00 
freq.    1484.24  E(vib)   ...       0.00 
freq.    1486.38  E(vib)   ...       0.00 
freq.    1492.24  E(vib)   ...       0.00 
freq.    1502.69  E(vib)   ...       0.00 
freq.    1505.64  E(vib)   ...       0.00 
freq.    1714.05  E(vib)   ...       0.00 
freq.    1747.27  E(vib)   ...       0.00 
freq.    2991.55  E(vib)   ...       0.00 
freq.    2992.62  E(vib)   ...       0.00 
freq.    3001.23  E(vib)   ...       0.00 
freq.    3022.57  E(vib)   ...       0.00 
freq.    3027.42  E(vib)   ...       0.00 
freq.    3031.20  E(vib)   ...       0.00 
freq.    3035.09  E(vib)   ...       0.00 
freq.    3041.78  E(vib)   ...       0.00 
freq.    3044.04  E(vib)   ...       0.00 
freq.    3057.88  E(vib)   ...       0.00 
freq.    3086.54  E(vib)   ...       0.00 
freq.    3095.02  E(vib)   ...       0.00 
freq.    3098.73  E(vib)   ...       0.00 
freq.    3188.42  E(vib)   ...       0.00 
freq.    3422.94  E(vib)   ...       0.00 
freq.    3600.70  E(vib)   ...       0.00 

------------
INNER ENERGY
------------

The inner energy is: U= E(el) + E(ZPE) + E(vib) + E(rot) + E(trans)
    E(el)   - is the total energy from the electronic structure calculation
              = E(kin-el) + E(nuc-el) + E(el-el) + E(nuc-nuc)
    E(ZPE)  - the the zero temperature vibrational energy from the frequency calculation
    E(vib)  - the the finite temperature correction to E(ZPE) due to population
              of excited vibrational states
    E(rot)  - is the rotational thermal energy
    E(trans)- is the translational thermal energy

Summary of contributions to the inner energy U:
Electronic energy                ...  -1123.75123092 Eh
Zero point energy                ...      0.26544351 Eh     166.57 kcal/mol
Thermal vibrational correction   ...      0.01190168 Eh       7.47 kcal/mol
Thermal rotational correction    ...      0.00141627 Eh       0.89 kcal/mol
Thermal translational correction ...      0.00141627 Eh       0.89 kcal/mol
-----------------------------------------------------------------------
Total thermal energy                  -1123.47105319 Eh


Summary of corrections to the electronic energy:
(perhaps to be used in another calculation)
Total thermal correction                  0.01473422 Eh       9.25 kcal/mol
Non-thermal (ZPE) correction              0.26544351 Eh     166.57 kcal/mol
-----------------------------------------------------------------------
Total correction                          0.28017773 Eh     175.81 kcal/mol


--------
ENTHALPY
--------

The enthalpy is H = U + kB*T
                kB is Boltzmann's constant
Total thermal energy              ...  -1123.47105319 Eh 
Thermal Enthalpy correction       ...      0.00094421 Eh       0.59 kcal/mol
-----------------------------------------------------------------------
Total Enthalpy                    ...  -1123.47010898 Eh


Note: Only C1 symmetry has been detected, increase convergence thresholds 
      if your molecule has a higher symmetry. Symmetry factor of 1.0 is   
      used for the rotational entropy correction. 
 

Note: Rotational entropy computed according to Herzberg 
Infrared and Raman Spectra, Chapter V,1, Van Nostrand Reinhold, 1945 
Point Group:  C1, Symmetry Number:   1  
Rotational constants in cm-1:     0.023749     0.013573     0.009957 

Vibrational entropy computed according to the QRRHO of S. Grimme
Chem.Eur.J. 2012 18 9955 using a reference frequency of 100.0 cm-1


-------
ENTROPY
-------

The entropy contributions are T*S = T*(S(el)+S(vib)+S(rot)+S(trans))
     S(el)   - electronic entropy
     S(vib)  - vibrational entropy
     S(rot)  - rotational entropy
     S(trans)- translational entropy
The entropies will be listed as multiplied by the temperature to get
units of energy

Electronic entropy                ...      0.00000000 Eh      0.00 kcal/mol
Vibrational entropy               ...      0.02053809 Eh     12.89 kcal/mol
Rotational entropy                ...      0.01548245 Eh      9.72 kcal/mol
Translational entropy             ...      0.02013635 Eh     12.64 kcal/mol
-----------------------------------------------------------------------
Final entropy term                ...      0.05615689 Eh     35.24 kcal/mol

In case the symmetry of your molecule has not been determined correctly
or in case you have a reason to use a different symmetry number we print 
out the resulting rotational entropy values for sn=1,12:

 non-linear molecules -----------------------------------
|  sn= 1 | S(rot)=       0.01548245 Eh      9.72 kcal/mol|
|  sn= 2 | S(rot)=       0.01482800 Eh      9.30 kcal/mol|
|  sn= 3 | S(rot)=       0.01444517 Eh      9.06 kcal/mol|
|  sn= 4 | S(rot)=       0.01417354 Eh      8.89 kcal/mol|
|  sn= 5 | S(rot)=       0.01396285 Eh      8.76 kcal/mol|
|  sn= 6 | S(rot)=       0.01379071 Eh      8.65 kcal/mol|
|  sn= 7 | S(rot)=       0.01364516 Eh      8.56 kcal/mol|
|  sn= 8 | S(rot)=       0.01351909 Eh      8.48 kcal/mol|
|  sn= 9 | S(rot)=       0.01340788 Eh      8.41 kcal/mol|
|  sn=10 | S(rot)=       0.01330840 Eh      8.35 kcal/mol|
|  sn=11 | S(rot)=       0.01321841 Eh      8.29 kcal/mol|
|  sn=12 | S(rot)=       0.01313625 Eh      8.24 kcal/mol|
 linear molecules ---------------------------------------
|  Dinfh | S(rot)=       0.00967800 Eh      6.07 kcal/mol|
|  Cinfv | S(rot)=       0.01033246 Eh      6.48 kcal/mol|
 --------------------------------------------------------


-------------------
GIBBS FREE ENERGY
-------------------

The Gibbs free energy is G = H - T*S

Total enthalpy                    ...  -1123.47010898 Eh 
Total entropy correction          ...     -0.05615689 Eh    -35.24 kcal/mol
-----------------------------------------------------------------------
Final Gibbs free energy         ...  -1123.52626587 Eh

For completeness - the Gibbs free energy minus the electronic energy
G-E(el)                           ...      0.22496505 Eh    141.17 kcal/mol


Maximum memory used throughout the entire PROP-calculation: 103.8 MB

--------------------------------
SUGGESTED CITATIONS FOR THIS RUN
--------------------------------

Below you find a list of papers that are relevant to this ORCA run
We neither can nor want to force you to cite these papers, but we appreciate if you do
You receive ORCA, which is the product of decades of hard work by many enthusiastic individuals, for free
The only thing we kindly ask in return is that you cite our papers,
We deeply appreciate it, if you show your appreciation for ORCA by not just citing the generic ORCA reference.

Please note that relegating all ORCA citations to the supporting information does *not* help us.
SI sections are not indexed - citations you put there will not count into any citation statistics
But we need these citations in order to attract the funding resources that allow us to do what we are doing

Therefore, if you are a happy ORCA user, please consider citing a few of the papers listed below in the main body of your paper

In addition to the list printed below, the program has created the file m1_00_Vitamin_B7-QM3_002-B97-3C-TZ.bibtex that contains the list in bibtex format
You can import this file easily into all common literature databanks and citation aid programs


List of essential papers. We consider these as the minimum necessary citations

  1. Neese,F.
     Software update: the ORCA program system, version 5.0
     WIRES Comput. Molec. Sci., 2022 12(1)e1606
     doi.org/10.1002/wcms.1606

List of papers to cite with high priority. The work reported in these papers was absolutely
necessary for this run to complete.
Our perspective: the developers of density functionals and basis sets usually get cited in chemistry papers
Good! But without the algorithms to do something with them, the functionals or basis sets would not do anything.
Hence, in our opinion, the algorithm design and method developments papers are equally worthy of getting cited

  1. Neese,F.
     An improvement of the resolution of the identity approximation for the formation of the Coulomb matrix
     J. Comp. Chem., 2003 24(14)1740-1747
     doi.org/10.1002/jcc.10318
  2. Bykov,D.; Petrenko,T.; Izsak,R.; Kossmann,S.; Becker,U.; Valeev,E.; Neese,F.
     Efficient implementation of the analytic second derivatives of Hartree-Fock and hybrid DFT energies: a detailed analysis of different approximations
     Molec. Phys., 2015 113 1961-1977
     doi.org/10.1080/00268976.2015.1025114
  3. Neese,F.
     The SHARK Integral Generation and Digestion System
     J. Comp. Chem., 2022  1-16
     doi.org/10.1002/jcc.26942
  4. Grimme,S.; Antony,J.; Ehrlich,S.; Krieg,H.
     A consistent and accurate ab initio parametrization of density functional dispersion correction (DFT-D) for the 94 elements H-Pu
     J. Chem. Phys., 2010 132 154104
     doi.org/10.1063/1.3382344
  5. Grimme,S.; Ehrlich,S.; Goerigk,L.
     Effect of the damping function in dispersion corrected density functional theory
     J. Comput. Chem., 2011 32(7)1456-1465
     doi.org/10.1002/jcc.21759

List of suggested additional citations. These are papers that are important in the 'surrounding' of 
of this run, or papers that preceded the highly important papers. If you like your results we are grateful for a citation.

  1. Neese,F.
     The ORCA program system
     WIRES Comput. Molec. Sci., 2012 2(1)73-78
     doi.org/10.1002/wcms.81
  2. Neese,F.
     Software update: the ORCA program system, version 4.0
     WIRES Comput. Molec. Sci., 2018 8(1)1-6
     doi.org/10.1002/wcms.1327
  3. Neese,F.; Wennmohs,F.; Becker,U.; Riplinger,C.
     The ORCA quantum chemistry program package
     J. Chem. Phys., 2020 152 Art. No. L224108
     doi.org/10.1063/5.0004608

List of optional additional citations

  1. Neese,F.
     Approximate second-order SCF convergence for spin unrestricted wavefunctions
     Chem. Phys. Lett., 2000 325(1-3)93-98
     doi.org/10.1016/s0009-2614(00)00662-x

Timings for individual modules:

Sum of individual times          ...      498.080 sec (=   8.301 min)
Startup calculation              ...       74.047 sec (=   1.234 min)  14.9 %
SCF iterations                   ...      152.695 sec (=   2.545 min)  30.7 %
Property integrals               ...       80.263 sec (=   1.338 min)  16.1 %
SCF Response                     ...       65.437 sec (=   1.091 min)  13.1 %
Property calculations            ...       31.599 sec (=   0.527 min)   6.3 %
SCF Gradient evaluation          ...       93.823 sec (=   1.564 min)  18.8 %
Geometry relaxation              ...        0.216 sec (=   0.004 min)   0.0 %
                             ****ORCA TERMINATED NORMALLY****
TOTAL RUN TIME: 0 days 0 hours 8 minutes 23 seconds 368 msec
