
                                 *****************
                                 * O   R   C   A *
                                 *****************

                                            #,                                       
                                            ###                                      
                                            ####                                     
                                            #####                                    
                                            ######                                   
                                           ########,                                 
                                     ,,################,,,,,                         
                               ,,#################################,,                 
                          ,,##########################################,,             
                       ,#########################################, ''#####,          
                    ,#############################################,,   '####,        
                  ,##################################################,,,,####,       
                ,###########''''           ''''###############################       
              ,#####''   ,,,,##########,,,,          '''####'''          '####       
            ,##' ,,,,###########################,,,                        '##       
           ' ,,###''''                  '''############,,,                           
         ,,##''                                '''############,,,,        ,,,,,,###''
      ,#''                                            '''#######################'''  
     '                                                          ''''####''''         
             ,#######,   #######,   ,#######,      ##                                
            ,#'     '#,  ##    ##  ,#'     '#,    #''#        ,####,   ,####,        
            ##       ##  ##   ,#'  ##            #'  '#       #'       #'  '#        
            ##       ##  #######   ##           ,######,      #####,   #    #        
            '#,     ,#'  ##    ##  '#,     ,#' ,#      #,     #,   #   #,  ,#        
             '#######'   ##     ##  '#######'  #'      '#     '####' # '####'        



                #########################################################
                #                        -***-                          #
                #          Department of theory and spectroscopy        #
                #                                                       #
                #                      Frank Neese                      #
                #                                                       #
                #     Directorship, Architecture, Infrastructure        #
                #                    SHARK, DRIVERS                     #
                #        Core code/Algorithms in most modules           #
                #                                                       #
                #        Max Planck Institute fuer Kohlenforschung      #
                #                Kaiser Wilhelm Platz 1                 #
                #                 D-45470 Muelheim/Ruhr                 #
                #                      Germany                          #
                #                                                       #
                #                  All rights reserved                  #
                #                        -***-                          #
                #########################################################


                         Program Version 6.0.1  -  RELEASE   -


 With contributions from (in alphabetic order):
[Max-Planck-Institut fuer Kohlenforschung]                               
  Daniel Aravena         : Magnetic Suceptibility                        
  Michael Atanasov       : Ab Initio Ligand Field Theory (pilot matlab implementation)
  Alexander A. Auer      : GIAO ZORA, VPT2 properties, NMR spectrum      
  Ute Becker             : All parallelization in ORCA, NUMFREQ, NUMCALC 
  Giovanni Bistoni       : ED, misc. LED, open-shell LED, HFLD           
  Martin Brehm           : Molecular dynamics                            
  Dmytro Bykov           : pre 5.0 version of the SCF Hessian            
  Marcos Casanova-Páez   : Triplet and SCS-CIS(D). UHF-(DLPNO)-IP/EA/STEOM-CCSD. UHF-CVS-IP/STEOM-CCSD   
  Vijay G. Chilkuri      : MRCI spin determinant printing, contributions to CSF-ICE 
  Pauline Colinet        : FMM embedding                                 
  Dipayan Datta          : RHF DLPNO-CCSD density                        
  Achintya Kumar Dutta   : EOM-CC, STEOM-CC                              
  Nicolas Foglia         : Exact transition moments, OPA infrastructure, MCD improvements    
  Dmitry Ganyushin       : Spin-Orbit,Spin-Spin,Magnetic field MRCI      
  Miquel Garcia-Rates    : C-PCM and meta-GGA Hessian, CCSD/C-PCM, Gaussian charge scheme 
  Tiago L. C. Gouveia    : GS-ROHF, GS-ROCIS                             
  Yang Guo               : DLPNO-NEVPT2, F12-NEVPT2, CIM, IAO-localization        
  Andreas Hansen         : Spin unrestricted coupled pair/coupled cluster methods 
  Ingolf Harden          : AUTO-CI MPn and infrastructure                
  Benjamin Helmich-Paris : MC-RPA, TRAH-(SCF,CASSCF), AVAS, COSX integrals, SCF dyn. polar. 
  Lee Huntington         : MR-EOM, pCC                                   
  Robert Izsak           : Overlap fitted RIJCOSX, COSX-SCS-MP3, EOM     
  Riya Kayal             : Wick's Theorem for AUTO-CI, AUTO-CI UHF-CCSDT 
  Emily Kempfer          : AUTO-CI, RHF CISDT and CCSDT                  
  Christian Kollmar      : KDIIS, OOCD, Brueckner-CCSD(T), CCSD density, CASPT2, CASPT2-K, improved NEVPT2 
  Axel Koslowski         : Symmetry handling                             
  Simone Kossmann        : meta-GGA functionals, TD-DFT gradient, OOMP2, (MP2 Hessian; deprecated post 5.0) 
  Lucas Lang             : DCDCAS                                        
  Marvin Lechner         : AUTO-CI (C++ implementation), FIC-MRCC        
  Spencer Leger          : CASSCF response                               
  Dagmar Lenk            : GEPOL surface, SMD, ORCA-2-JSON               
  Dimitrios Liakos       : Extrapolation schemes; Compound Job, initial MDCI parallelization 
  Dimitrios Manganas     : Further ROCIS development; embedding schemes. LFT, Crystal Embedding 
  Dimitrios Pantazis     : SARC Basis sets                               
  Anastasios Papadopoulos: AUTO-CI, single reference methods and gradients 
  Taras Petrenko         : pre 6.0 DFT Hessian and TD-DFT gradient, (ASA, deprecated), ECA, 1-Electron XAS/XES, NRVS 
  Peter Pinski           : DLPNO-MP2, DLPNO-MP2 Gradient                 
  Christoph Reimann      : Effective Core Potentials                     
  Marius Retegan         : Local ZFS, SOC                                
  Christoph Riplinger    : Optimizer, TS searches, QM/MM, DLPNO-CCSD(T), (RO)-DLPNO pert. Triples 
  Michael Roemelt        : Original ROCIS implementation                 
  Masaaki Saitow         : Open-shell DLPNO-CCSD energy and density      
  Barbara Sandhoefer     : DKH picture change effects                    
  Kantharuban Sivalingam : CASSCF convergence/infrastructure, NEVPT2 and variants, FIC-MRCI 
  Bernardo de Souza      : ESD, SOC TD-DFT                               
  Georgi L. Stoychev     : AutoAux, RI-MP2 NMR, DLPNO-MP2 response, X2C  
  Van Anh Tran           : RI-MP2 g-tensors                              
  Willem Van den Heuvel  : Paramagnetic NMR                              
  Zikuan Wang            : NOTCH, Electric field optimization            
  Frank Wennmohs         : Technical directorship and infrastructure     
  Hang Xu                : AUTO-CI-Response properties                   
                                                                         
[FACCTs GmbH]                                                            
  Markus Bursch, Miquel Garcia-Rates, Christoph Riplinger, Bernardo de Souza, Georgi L. Stoychev 
                                                                 
  APM, Basis sets (HGBS, AHGBS, def-TZVP (Ac-Lr), def2-XVPD (La-Lu)), CI-OPT, improved COSX, DLPNO-Multilevel,           
  DOCKER, DRACO, updates on ESD, GOAT, IRC, LR-CPCM, MBIS, meta-GGA TD-DFT gradient, ML-optimized integration grids, 
  MM, NACMEs, nearIR, NEB, NEB-TS, NL-DFT gradient (VV10), 2- and 3-layer-ONIOM, interface openCOSMO-RS, QMMM,   
  Crystal-QMMM, SF, symmetry and pop. for TD-DFT, r2SCAN hybrids, SOLVATOR                                   
                                                                         
[Other institutions]                                                     
  V. Asgeirsson          : NEB                                           
  Christoph Bannwarth    : sTDA-DFT, sTD-DFT, PBEh-3c, B97-3c, D3        
  Sebastian Ehlert       : rSCAN, r2SCAN, r2SCAN-3c, D4, dhf basis sets  
  Marvin Friede          : D4 for Fr, Ra, Ac-Lr                          
  Lars Goerigk           : TD-DFT with DH, B97 family of functionals     
  Stefan Grimme          : VdW corrections, initial TS optimization, DFT functionals, gCP, sTDA/sTD-DF 
  Waldemar Hujo          : DFT-NL                                        
  H. Jonsson             : NEB                                           
  Holger Kruse           : gCP                                           
  Marcel Mueller         : wB97X-3c, vDZP basis set                      
  Hagen Neugebauer       : wr2SCAN                                       
  Tobias Risthaus        : range-separated hybrid DFT                    
  Lukas Wittmann         : regularized MP2, r2SCAN double-hybrids, wr2SCAN        
                                                                         
We gratefully acknowledge several colleagues who have allowed us to      
interface, adapt or use parts of their codes:                            
  Ed Valeev, F. Pavosevic, A. Kumar             : LibInt (2-el integral package), F12 methods 
  Garnet Chan, S. Sharma, J. Yang, R. Olivares  : DMRG                   
  Ulf Ekstrom                                   : XCFun DFT Library      
  Mihaly Kallay                                 : mrcc  (arbitrary order and MRCC methods)
  Frank Weinhold                                : gennbo (NPA and NBO analysis)           
  Simon Mueller                                 : openCOSMO-RS                            
  Christopher J. Cramer and Donald G. Truhlar   : smd solvation model                     
  S Lehtola, MJT Oliveira, MAL Marques          : LibXC Library                           
  Liviu Ungur et al                             : ANISO software                          


 Your calculation uses the libint2 library for the computation of 2-el integrals
 For citations please refer to: http://libint.valeyev.net

 Your ORCA version has been built with support for libXC version: 6.2.2
 For citations please refer to: https://libxc.gitlab.io

 This ORCA versions uses:
   CBLAS   interface :  Fast vector & matrix operations
   LAPACKE interface :  Fast linear algebra routines
   SCALAPACK package :  Parallel linear algebra routines
   Shared memory     :  Shared parallel matrices
   BLAS/LAPACK       :  OpenBLAS 0.3.27  USE64BITINT DYNAMIC_ARCH NO_AFFINITY Zen SINGLE_THREADED
        Core in use  :  Zen
   Copyright (c) 2011-2014, The OpenBLAS Project


NOTE: MaxCore=6000 MB was set to SCF,MP2,MDCI,CIPSI,MRCI and CIS
      => If you want to overwrite this, your respective input block should be placed after the MaxCore statement
Your calculation utilizes the atom-pairwise dispersion correction
with the Becke-Johnson damping scheme (D3BJ)


Your calculation employs the composite approach B97-3c by Grimme and coworkers.
For the correct reference, please check the publication list of the Grimme group:
http://www.thch.uni-bonn.de/tc/index.php?section=publikationen&subsection=grimme#2017
   

XCFun DFT library Copyright 2009-2010 Ulf Ekstrom and contributors.
See http://admol.org/xcfun for more information.
This is free software; see the source code for copying conditions.
There is ABSOLUTELY NO WARRANTY; not even for MERCHANTABILITY or FITNESS FOR A PARTICULAR PURPOSE.
For details see the documentation.
Scientific users of this library should cite U. Ekstrom, L. Visscher, R. Bast, A. J. Thorvaldsen and K. Ruud;
J.Chem.Theor.Comp. 2010, DOI: 10.1021/ct100117s
XCFun Version 0.99 

================================================================================

----- Orbital basis set information -----
Your calculation utilizes the basis: def2-mTZVP
----- AuxJ basis set information -----
Your calculation utilizes the basis: def2-mTZVP/J
================================================================================
                                        WARNINGS
                       Please study these warnings very carefully!
================================================================================


WARNING: Geometry Optimization
  ===> : Switching off AutoStart
         For restart on a previous wavefunction, please use MOREAD

================================================================================
                                       INPUT FILE
================================================================================
NAME = m1_00_Vitamin_B7-QM3_001-B97-3C-TZ.inp
|  1> %pal nprocs 16 end
|  2> %MaxCore 6000
|  3> # put your comments here
|  4> ! B97-3C  OPT  FREQ DEFGRID3 NOTRAH
|  5> %scf MaxIter 800 end
|  6> %output
|  7> Print [P_Hirshfeld] 1
|  8> end
|  9> %geom
| 10> MaxIter 3000
| 11>  TolE 1e-6 #TolE 5e-6 Energy change (a.u.)
| 12>  TolRMSG 3e-5 #TolRMSG 1e-4 RMS gradient (a.u.)
| 13>  TolMaxG 1e-4 #TolMaxG 3e-3 Max. element of gradient (a.u.)
| 14>  TolRMSD 2e-3 #TolRMSD 2e-3 RMS displacement (a.u.)
| 15>  TolMaxD 4e-3 #TolMaxD 4e-3 Max. displacement (a.u.)
| 16> end
| 17> * xyz 0 1
| 18>  S      -2.63607740      -1.78592983       0.57858188
| 19>  O       2.24346669       0.46391761       1.95521585
| 20>  O       2.00263539       1.92266890      -0.17869014
| 21>  O       2.19147160       0.04357478      -1.37295178
| 22>  N       1.23324523      -1.24891286       0.78753750
| 23>  N       0.33185512      -0.60694718       2.68982904
| 24>  C      -0.04786537      -1.88529720       0.80438514
| 25>  C      -0.55240467      -1.63729117       2.22144297
| 26>  C      -1.05774558      -1.32323872      -0.18275295
| 27>  C      -2.00927491      -1.21572068       2.17175230
| 28>  C      -0.92434749       0.16664564      -0.43309485
| 29>  C      -0.87649831       0.52634810      -1.91008144
| 30>  C       1.37644533      -0.38280048       1.83266852
| 31>  C      -0.32859958       1.92968631      -2.16160038
| 32>  C       1.18256272       1.94932559      -2.38360244
| 33>  C       1.87496451       1.21056295      -1.27315774
| 34>  H       0.05399716      -2.95766348       0.60424894
| 35>  H      -0.45099744      -2.54130371       2.83436110
| 36>  H      -0.98700942      -1.86117897      -1.12791487
| 37>  H      -2.60499859      -1.63465138       2.98268404
| 38>  H      -2.07395861      -0.13334999       2.22620461
| 39>  H      -1.74115832       0.70978621       0.03798846
| 40>  H      -0.03080886       0.52915926       0.04569054
| 41>  H       1.76251369      -1.05735746      -0.05848333
| 42>  H       0.31067704      -0.18039705       3.59765105
| 43>  H      -0.25624508      -0.19184901      -2.44656432
| 44>  H      -1.88532279       0.43772583      -2.32718242
| 45>  H      -0.80148967       2.36503353      -3.05011885
| 46>  H      -0.57596020       2.58310981      -1.32219087
| 47>  H       1.55065587       2.97772064      -2.41799151
| 48>  H       1.43730115       1.45160442      -3.32081797
| 49>  H       2.28897082       1.37701960       0.59695391
| 50> *
| 51> 
| 52> 
| 53> 
| 54> 
| 55>                          ****END OF INPUT****
================================================================================

                       *****************************
                       * Geometry Optimization Run *
                       *****************************

Geometry optimization settings:
Update method            Update   .... BFGS
Choice of coordinates    CoordSys .... (2022) Redundant Internals
Initial Hessian          InHess   .... Almloef's Model
Max. no of cycles        MaxIter  .... 3000

Convergence Tolerances:
Energy Change            TolE     ....  1.0000e-06 Eh
Max. Gradient            TolMAXG  ....  1.0000e-04 Eh/bohr
RMS Gradient             TolRMSG  ....  3.0000e-05 Eh/bohr
Max. Displacement        TolMAXD  ....  4.0000e-03 bohr
RMS Displacement         TolRMSD  ....  2.0000e-03 bohr
Strict Convergence                .... False

------------------------------------------------------------------------------
                        ORCA OPTIMIZATION COORDINATE SETUP
------------------------------------------------------------------------------

The optimization will be done in redundant internal coordinates (2022)
Making redundant internal coordinates   ...  (2022 redundants) done
Evaluating the initial hessian          ...  (Almloef) done
Evaluating the coordinates              ...  done
Calculating the B-matrix                .... done
Calculating the G-matrix                .... done
Diagonalizing the G-matrix              .... done
Small eigenvalue found = 8.922e-03
Small eigenvalue found = 1.689e-02
The first mode is                       ....   81
The number of degrees of freedom        ....   90

    -----------------------------------------------------------------
                    Redundant Internal Coordinates


    -----------------------------------------------------------------
         Definition                    Initial Value    Approx d2E/dq
    -----------------------------------------------------------------
      1. B(C   6,N   4)                  1.4306         0.482123   
      2. B(C   7,C   6)                  1.5245         0.381191   
      3. B(C   7,N   5)                  1.4363         0.472099   
      4. B(C   8,C   6)                  1.5199         0.387643   
      5. B(C   8,S   0)                  1.8124         0.356920   
      6. B(C   9,C   7)                  1.5175         0.391198   
      7. B(C   9,S   0)                  1.8045         0.367453   
      8. B(C  10,C   8)                  1.5166         0.392355   
      9. B(C  11,C  10)                  1.5209         0.386261   
     10. B(C  12,N   5)                  1.3697         0.602879   
     11. B(C  12,N   4)                  1.3649         0.613647   
     12. B(C  12,O   1)                  1.2181         1.052425   
     13. B(C  13,C  11)                  1.5274         0.377223   
     14. B(C  14,C  13)                  1.5275         0.377010   
     15. B(C  15,O   2)                  1.3120         0.745374   
     16. B(C  15,C  14)                  1.5028         0.412898   
     17. B(C  15,O   3)                  1.2133         1.071161   
     18. B(H  16,C   6)                  1.0956         0.352732   
     19. B(H  17,C   7)                  1.0969         0.351086   
     20. B(H  18,C   8)                  1.0898         0.360334   
     21. B(H  19,C   9)                  1.0900         0.360161   
     22. B(H  20,C   9)                  1.0857         0.365876   
     23. B(H  21,C  10)                  1.0882         0.362537   
     24. B(H  22,C  10)                  1.0766         0.378273   
     25. B(H  23,N   4)                  1.0162         0.423035   
     26. B(H  23,O   3)                  1.7675         0.026775   
     27. B(H  24,N   5)                  1.0033         0.443553   
     28. B(H  25,C  11)                  1.0901         0.359957   
     29. B(H  26,C  11)                  1.0952         0.353232   
     30. B(H  27,C  13)                  1.0966         0.351424   
     31. B(H  28,C  13)                  1.0921         0.357287   
     32. B(H  29,C  14)                  1.0928         0.356379   
     33. B(H  30,C  14)                  1.0913         0.358351   
     34. B(H  31,O   3)                  2.3808         0.002813   
     35. B(H  31,O   1)                  1.6373         0.043192   
     36. B(H  31,O   2)                  0.9906         0.464623   
     37. A(C   8,S   0,C   9)           89.2958         0.398837   
     38. A(C  15,O   2,H  31)          112.4786         0.374712   
     39. A(C   6,N   4,C  12)          111.5443         0.408882   
     40. A(C   6,N   4,H  23)          124.0630         0.342445   
     41. A(C  12,N   4,H  23)          117.5969         0.356667   
     42. A(C   7,N   5,C  12)          112.5094         0.406091   
     43. A(C   7,N   5,H  24)          125.9508         0.343962   
     44. A(C  12,N   5,H  24)          120.8494         0.358470   
     45. A(C   8,C   6,H  16)          107.7628         0.325188   
     46. A(N   4,C   6,H  16)          110.4869         0.335099   
     47. A(C   7,C   6,C   8)          108.8829         0.366923   
     48. A(N   4,C   6,C   7)          103.5891         0.378585   
     49. A(C   7,C   6,H  16)          111.0872         0.324293   
     50. A(N   4,C   6,C   8)          115.0153         0.379688   
     51. A(C   6,C   7,H  17)          110.7764         0.324044   
     52. A(N   5,C   7,C   9)          113.7322         0.378907   
     53. A(N   5,C   7,C   6)          102.4785         0.377211   
     54. A(N   5,C   7,H  17)          110.6147         0.333672   
     55. A(C   9,C   7,H  17)          109.6344         0.325426   
     56. A(C   6,C   7,C   9)          109.4204         0.367498   
     57. A(C   6,C   8,H  18)          109.7305         0.326331   
     58. A(S   0,C   8,C   6)          102.2037         0.382038   
     59. A(C   6,C   8,C  10)          114.3322         0.368745   
     60. A(S   0,C   8,C  10)          113.3732         0.382841   
     61. A(S   0,C   8,H  18)          107.1467         0.338289   
     62. A(C  10,C   8,H  18)          109.6353         0.326981   
     63. A(S   0,C   9,C   7)          105.9389         0.384584   
     64. A(H  19,C   9,H  20)          108.2588         0.291575   
     65. A(C   7,C   9,H  20)          109.4224         0.327645   
     66. A(S   0,C   9,H  20)          109.7928         0.340804   
     67. A(C   7,C   9,H  19)          113.1784         0.326796   
     68. A(S   0,C   9,H  19)          110.2166         0.339909   
     69. A(C   8,C  10,C  11)          113.2906         0.368519   
     70. A(H  21,C  10,H  22)          105.2127         0.293413   
     71. A(C  11,C  10,H  22)          109.0340         0.328761   
     72. A(C   8,C  10,H  22)          109.2914         0.329612   
     73. A(C  11,C  10,H  21)          109.0250         0.326466   
     74. A(C   8,C  10,H  21)          110.6615         0.327309   
     75. A(C  13,C  11,H  26)          110.0019         0.323811   
     76. A(C  10,C  11,H  26)          108.7668         0.325073   
     77. A(C  13,C  11,H  25)          108.6741         0.324816   
     78. A(H  25,C  11,H  26)          106.4608         0.289944   
     79. A(C  10,C  11,H  25)          109.8774         0.326083   
     80. A(C  10,C  11,C  13)          112.8617         0.366042   
     81. A(O   1,C  12,N   4)          126.3576         0.470703   
     82. A(N   4,C  12,N   5)          107.1771         0.425481   
     83. A(O   1,C  12,N   5)          126.4156         0.469176   
     84. A(H  27,C  13,H  28)          106.7112         0.289372   
     85. A(C  11,C  13,H  28)          109.9928         0.324419   
     86. A(C  14,C  13,H  27)          107.6827         0.323509   
     87. A(C  11,C  13,H  27)          110.0893         0.323539   
     88. A(C  14,C  13,H  28)          109.1524         0.324389   
     89. A(C  11,C  13,C  14)          112.9938         0.364526   
     90. A(H  29,C  14,H  30)          108.8768         0.290144   
     91. A(C  15,C  14,H  30)          107.6279         0.329445   
     92. A(C  13,C  14,H  30)          110.4795         0.324547   
     93. A(C  15,C  14,H  29)          109.3100         0.329145   
     94. A(C  13,C  14,H  29)          110.4809         0.324253   
     95. A(C  13,C  14,C  15)          110.0054         0.370219   
     96. A(O   3,C  15,C  14)          122.1593         0.442265   
     97. A(O   2,C  15,C  14)          113.2312         0.414430   
     98. A(O   2,C  15,O   3)          124.4237         0.489475   
     99. D(H  16,C   6,N   4,C  12)   -135.6148         0.019887   
    100. D(C   7,C   6,N   4,C  12)    -16.5725         0.019887   
    101. D(C   8,C   6,N   4,H  23)    -48.1145         0.019887   
    102. D(C   8,C   6,N   4,C  12)    102.1272         0.019887   
    103. D(C   7,C   6,N   4,H  23)   -166.8142         0.019887   
    104. D(C   6,C   7,N   5,H  24)   -179.7602         0.019047   
    105. D(C   6,C   7,N   5,C  12)     -9.2836         0.019047   
    106. D(N   5,C   7,C   6,H  16)    133.4690         0.011577   
    107. D(N   5,C   7,C   6,N   4)     14.8405         0.011577   
    108. D(C   9,C   7,C   6,H  16)   -105.5277         0.011577   
    109. D(C   9,C   7,N   5,C  12)   -127.2719         0.019047   
    110. D(N   5,C   7,C   6,C   8)   -108.0110         0.011577   
    111. D(C   9,C   7,C   6,C   8)     12.9923         0.011577   
    112. D(C   9,C   7,C   6,N   4)    135.8438         0.011577   
    113. D(H  17,C   7,N   5,C  12)    108.8419         0.019047   
    114. D(C   9,C   7,N   5,H  24)     62.2515         0.019047   
    115. D(C  10,C   8,C   6,H  16)   -156.7837         0.011953   
    116. D(C  10,C   8,C   6,C   7)     82.6283         0.011953   
    117. D(S   0,C   8,C   6,H  16)     80.3105         0.011953   
    118. D(S   0,C   8,C   6,C   7)    -40.2775         0.011953   
    119. D(C  10,C   8,C   6,N   4)    -33.0701         0.011953   
    120. D(H  18,C   8,S   0,C   9)    160.8759         0.003537   
    121. D(S   0,C   8,C   6,N   4)   -155.9759         0.011953   
    122. D(C   6,C   8,S   0,C   9)     45.5227         0.003537   
    123. D(C  10,C   8,S   0,C   9)    -78.0303         0.003537   
    124. D(S   0,C   9,C   7,C   6)     20.6800         0.012163   
    125. D(S   0,C   9,C   7,N   5)    134.5880         0.012163   
    126. D(H  20,C   9,S   0,C   8)     79.1317         0.003664   
    127. D(C   7,C   9,S   0,C   8)    -38.9231         0.003664   
    128. D(S   0,C   9,C   7,H  17)   -100.9962         0.012163   
    129. D(H  19,C   9,S   0,C   8)   -161.7004         0.003664   
    130. D(H  19,C   9,C   7,H  17)     19.8823         0.012163   
    131. D(H  19,C   9,C   7,C   6)    141.5584         0.012163   
    132. D(H  19,C   9,C   7,N   5)   -104.5336         0.012163   
    133. D(H  21,C  10,C   8,H  18)    128.7809         0.012232   
    134. D(H  21,C  10,C   8,C   6)   -107.5280         0.012232   
    135. D(H  21,C  10,C   8,S   0)      9.0981         0.012232   
    136. D(C  11,C  10,C   8,H  18)      5.9863         0.012232   
    137. D(C  11,C  10,C   8,C   6)    129.6774         0.012232   
    138. D(C  11,C  10,C   8,S   0)   -113.6965         0.012232   
    139. D(H  25,C  11,C  10,H  22)     80.7816         0.011872   
    140. D(H  25,C  11,C  10,H  21)   -164.8516         0.011872   
    141. D(H  25,C  11,C  10,C   8)    -41.1560         0.011872   
    142. D(C  13,C  11,C  10,H  22)    -40.6805         0.011872   
    143. D(C  13,C  11,C  10,H  21)     73.6863         0.011872   
    144. D(C  13,C  11,C  10,C   8)   -162.6181         0.011872   
    145. D(N   4,C  12,N   5,H  24)    170.5166         0.029307   
    146. D(N   4,C  12,N   5,C   7)     -0.5082         0.029307   
    147. D(O   1,C  12,N   5,H  24)    -11.9254         0.029307   
    148. D(O   1,C  12,N   5,C   7)    177.0499         0.029307   
    149. D(N   5,C  12,N   4,H  23)    163.6058         0.030444   
    150. D(N   5,C  12,N   4,C   6)     11.2492         0.030444   
    151. D(O   1,C  12,N   4,H  23)    -13.9541         0.030444   
    152. D(O   1,C  12,N   4,C   6)   -166.3107         0.030444   
    153. D(H  27,C  13,C  11,H  26)    -26.3059         0.011350   
    154. D(H  27,C  13,C  11,H  25)     89.8830         0.011350   
    155. D(H  27,C  13,C  11,C  10)   -147.9763         0.011350   
    156. D(C  14,C  13,C  11,H  26)   -146.7393         0.011350   
    157. D(C  14,C  13,C  11,H  25)    -30.5505         0.011350   
    158. D(C  14,C  13,C  11,C  10)     91.5903         0.011350   
    159. D(C  15,C  14,C  13,H  28)     71.4970         0.011338   
    160. D(C  15,C  14,C  13,H  27)   -173.0218         0.011338   
    161. D(C  15,C  14,C  13,C  11)    -51.2242         0.011338   
    162. D(H  29,C  14,C  13,H  28)    -49.2764         0.011338   
    163. D(H  29,C  14,C  13,H  27)     66.2049         0.011338   
    164. D(H  29,C  14,C  13,C  11)   -171.9975         0.011338   
    165. D(O   3,C  15,C  14,H  29)   -143.0734         0.012620   
    166. D(O   3,C  15,C  14,C  13)     95.4515         0.012620   
    167. D(O   2,C  15,C  14,H  30)    159.7793         0.012620   
    168. D(O   2,C  15,C  14,H  29)     41.6769         0.012620   
    169. D(O   2,C  15,C  14,C  13)    -79.7982         0.012620   
    170. D(C  14,C  15,O   2,H  31)    168.3880         0.042140   
    171. D(O   3,C  15,O   2,H  31)     -6.7365         0.042140   
    -----------------------------------------------------------------

Number of atoms                         .... 32
Number of degrees of freedom            .... 171


         *************************************************************
         *                GEOMETRY OPTIMIZATION CYCLE   1            *
         *************************************************************
---------------------------------
CARTESIAN COORDINATES (ANGSTROEM)
---------------------------------
  S     -2.636077   -1.785930    0.578582
  O      2.243467    0.463918    1.955216
  O      2.002635    1.922669   -0.178690
  O      2.191472    0.043575   -1.372952
  N      1.233245   -1.248913    0.787537
  N      0.331855   -0.606947    2.689829
  C     -0.047865   -1.885297    0.804385
  C     -0.552405   -1.637291    2.221443
  C     -1.057746   -1.323239   -0.182753
  C     -2.009275   -1.215721    2.171752
  C     -0.924347    0.166646   -0.433095
  C     -0.876498    0.526348   -1.910081
  C      1.376445   -0.382800    1.832669
  C     -0.328600    1.929686   -2.161600
  C      1.182563    1.949326   -2.383602
  C      1.874965    1.210563   -1.273158
  H      0.053997   -2.957663    0.604249
  H     -0.450997   -2.541304    2.834361
  H     -0.987009   -1.861179   -1.127915
  H     -2.604999   -1.634651    2.982684
  H     -2.073959   -0.133350    2.226205
  H     -1.741158    0.709786    0.037988
  H     -0.030809    0.529159    0.045691
  H      1.762514   -1.057357   -0.058483
  H      0.310677   -0.180397    3.597651
  H     -0.256245   -0.191849   -2.446564
  H     -1.885323    0.437726   -2.327182
  H     -0.801490    2.365034   -3.050119
  H     -0.575960    2.583110   -1.322191
  H      1.550656    2.977721   -2.417992
  H      1.437301    1.451604   -3.320818
  H      2.288971    1.377020    0.596954

----------------------------
CARTESIAN COORDINATES (A.U.)
----------------------------
  NO LB      ZA    FRAG     MASS         X           Y           Z
   0 S    16.0000    0    32.060   -4.981464   -3.374918    1.093361
   1 O     8.0000    0    15.999    4.239538    0.876677    3.694822
   2 O     8.0000    0    15.999    3.784432    3.633318   -0.337675
   3 O     8.0000    0    15.999    4.141281    0.082344   -2.594503
   4 N     7.0000    0    14.007    2.330496   -2.360103    1.488230
   5 N     7.0000    0    14.007    0.627115   -1.146964    5.083040
   6 C     6.0000    0    12.011   -0.090452   -3.562695    1.520068
   7 C     6.0000    0    12.011   -1.043894   -3.094032    4.197919
   8 C     6.0000    0    12.011   -1.998849   -2.500559   -0.345353
   9 C     6.0000    0    12.011   -3.796979   -2.297379    4.104017
  10 C     6.0000    0    12.011   -1.746764    0.314915   -0.818431
  11 C     6.0000    0    12.011   -1.656342    0.994654   -3.609531
  12 C     6.0000    0    12.011    2.601105   -0.723388    3.463242
  13 C     6.0000    0    12.011   -0.620963    3.646579   -4.084833
  14 C     6.0000    0    12.011    2.234720    3.683692   -4.504356
  15 C     6.0000    0    12.011    3.543169    2.287632   -2.405919
  16 H     1.0000    0     1.008    0.102040   -5.589174    1.141865
  17 H     1.0000    0     1.008   -0.852262   -4.802368    5.356166
  18 H     1.0000    0     1.008   -1.865177   -3.517119   -2.131450
  19 H     1.0000    0     1.008   -4.922734   -3.089043    5.636456
  20 H     1.0000    0     1.008   -3.919214   -0.251995    4.206917
  21 H     1.0000    0     1.008   -3.290312    1.341302    0.071788
  22 H     1.0000    0     1.008   -0.058220    0.999966    0.086343
  23 H     1.0000    0     1.008    3.330668   -1.998116   -0.110517
  24 H     1.0000    0     1.008    0.587095   -0.340901    6.798575
  25 H     1.0000    0     1.008   -0.484233   -0.362542   -4.623337
  26 H     1.0000    0     1.008   -3.562744    0.827182   -4.397737
  27 H     1.0000    0     1.008   -1.514596    4.469266   -5.763889
  28 H     1.0000    0     1.008   -1.088407    4.881370   -2.498579
  29 H     1.0000    0     1.008    2.930315    5.627077   -4.569342
  30 H     1.0000    0     1.008    2.716106    2.743135   -6.275437
  31 H     1.0000    0     1.008    4.325528    2.602190    1.128079

--------------------------------
INTERNAL COORDINATES (ANGSTROEM)
--------------------------------
 S      0   0   0     0.000000000000     0.00000000     0.00000000
 O      1   0   0     5.546790523977     0.00000000     0.00000000
 O      2   1   0     2.596056589386    86.69251862     0.00000000
 O      3   2   1     2.234483092530    87.64693294   293.75228128
 N      2   1   3     2.306037368792    35.67660853   269.27416600
 N      5   2   1     2.200758316549    61.64578541   323.62838337
 C      5   2   1     1.430563958935   135.78780786   340.38117130
 C      6   5   2     1.436283267503    76.17375614   178.33730467
 C      7   5   2     1.519937295489   115.01525524    93.82658441
 C      8   6   5     1.517452383741   113.73221133   232.41803476
 C      9   7   5     1.516648121182   114.33221227   326.92985569
 C     11   9   7     1.520909198735   113.29056649   129.67741709
 C      2   1   3     1.218062153882    21.07616894   214.54547773
 C     12  11   9     1.527354879247   112.86167127   197.38187506
 C     14  12  11     1.527508465739   112.99380774    91.59029742
 C      4   3   2     1.213258825379    28.96819413   162.35570334
 H      7   5   2     1.095627633847   110.48693369   216.08455920
 H      8   6   5     1.096900511832   110.61471960   108.53176179
 H      9   7   5     1.089823092029   109.73052108    90.56986787
 H     10   8   6     1.089954091352   113.17836666   255.46642853
 H     10   8   6     1.085668156336   109.42237398    16.28682557
 H     11   9   7     1.088164094126   110.66149220   252.47202294
 H     11   9   7     1.076597816116   109.29141719     7.88366016
 H      5   2   1     1.016154426657    93.06027279   129.62219050
 H      6   5   2     1.003261843347   156.18002342   338.31847422
 H     12  11   9     1.090107810572   109.87741285   318.84395411
 H     12  11   9     1.095241510218   108.76676607    75.01649417
 H     14  12  11     1.096639097750   110.08934562   212.02372526
 H     14  12  11     1.092134548560   109.99277220   329.33838338
 H     15  14  12     1.092827321253   110.48086023   188.00245548
 H     15  14  12     1.091325332089   110.47949883    67.46106581
 H      3   2   1     0.990628502197    11.50254983   212.09854544

---------------------------
INTERNAL COORDINATES (A.U.)
---------------------------
 S      0   0   0     0.000000000000     0.00000000     0.00000000
 O      1   0   0    10.481915012547     0.00000000     0.00000000
 O      2   1   0     4.905835982101    86.69251862     0.00000000
 O      3   2   1     4.222561095759    87.64693294   293.75228128
 N      2   1   3     4.357779081605    35.67660853   269.27416600
 N      5   2   1     4.158830505227    61.64578541   323.62838337
 C      5   2   1     2.703374099445   135.78780786   340.38117130
 C      6   5   2     2.714182026315    76.17375614   178.33730467
 C      7   5   2     2.872265229207   115.01525524    93.82658441
 C      8   6   5     2.867569426537   113.73221133   232.41803476
 C      9   7   5     2.866049590560   114.33221227   326.92985569
 C     11   9   7     2.874101860171   113.29056649   129.67741709
 C      2   1   3     2.301803884931    21.07616894   214.54547773
 C     12  11   9     2.886282431086   112.86167127   197.38187506
 C     14  12  11     2.886572667493   112.99380774    91.59029742
 C      4   3   2     2.292726909529    28.96819413   162.35570334
 H      7   5   2     2.070436172727   110.48693369   216.08455920
 H      8   6   5     2.072841563520   110.61471960   108.53176179
 H      9   7   5     2.059467178358   109.73052108    90.56986787
 H     10   8   6     2.059714731202   113.17836666   255.46642853
 H     10   8   6     2.051615487793   109.42237398    16.28682557
 H     11   9   7     2.056332126665   110.66149220   252.47202294
 H     11   9   7     2.034475028837   109.29141719     7.88366016
 H      5   2   1     1.920253576153    93.06027279   129.62219050
 H      6   5   2     1.895890124539   156.18002342   338.31847422
 H     12  11   9     2.060005218430   109.87741285   318.84395411
 H     12  11   9     2.069706504814   108.76676607    75.01649417
 H     14  12  11     2.072347562497   110.08934562   212.02372526
 H     14  12  11     2.063835198171   109.99277220   329.33838338
 H     15  14  12     2.065144348835   110.48086023   188.00245548
 H     15  14  12     2.062306000658   110.47949883    67.46106581
 H      3   2   1     1.872016569608    11.50254983   212.09854544

---------------------
BASIS SET INFORMATION
---------------------
There are 5 groups of distinct atoms

 Group   1 Type S   : 14s9p1d contracted to 5s4p1d pattern {73211/6111/1}
 Group   2 Type O   : 11s6p2d contracted to 5s3p2d pattern {62111/411/11}
 Group   3 Type N   : 11s6p1d contracted to 5s3p1d pattern {62111/411/1}
 Group   4 Type C   : 11s6p1d contracted to 5s3p1d pattern {62111/411/1}
 Group   5 Type H   : 5s contracted to 3s pattern {311}

Atom   0S    basis set group =>   1
Atom   1O    basis set group =>   2
Atom   2O    basis set group =>   2
Atom   3O    basis set group =>   2
Atom   4N    basis set group =>   3
Atom   5N    basis set group =>   3
Atom   6C    basis set group =>   4
Atom   7C    basis set group =>   4
Atom   8C    basis set group =>   4
Atom   9C    basis set group =>   4
Atom  10C    basis set group =>   4
Atom  11C    basis set group =>   4
Atom  12C    basis set group =>   4
Atom  13C    basis set group =>   4
Atom  14C    basis set group =>   4
Atom  15C    basis set group =>   4
Atom  16H    basis set group =>   5
Atom  17H    basis set group =>   5
Atom  18H    basis set group =>   5
Atom  19H    basis set group =>   5
Atom  20H    basis set group =>   5
Atom  21H    basis set group =>   5
Atom  22H    basis set group =>   5
Atom  23H    basis set group =>   5
Atom  24H    basis set group =>   5
Atom  25H    basis set group =>   5
Atom  26H    basis set group =>   5
Atom  27H    basis set group =>   5
Atom  28H    basis set group =>   5
Atom  29H    basis set group =>   5
Atom  30H    basis set group =>   5
Atom  31H    basis set group =>   5
---------------------------------
AUXILIARY/J BASIS SET INFORMATION
---------------------------------
There are 5 groups of distinct atoms

 Group   1 Type S   : 14s5p5d2f1g contracted to 8s4p3d1f1g pattern {71111111/2111/311/2/1}
 Group   2 Type O   : 8s3p3d contracted to 6s3p3d pattern {311111/111/111}
 Group   3 Type N   : 8s3p3d contracted to 6s3p3d pattern {311111/111/111}
 Group   4 Type C   : 8s3p3d contracted to 6s3p3d pattern {311111/111/111}
 Group   5 Type H   : 5s2p contracted to 3s1p pattern {311/2}

Atom   0S    basis set group =>   1
Atom   1O    basis set group =>   2
Atom   2O    basis set group =>   2
Atom   3O    basis set group =>   2
Atom   4N    basis set group =>   3
Atom   5N    basis set group =>   3
Atom   6C    basis set group =>   4
Atom   7C    basis set group =>   4
Atom   8C    basis set group =>   4
Atom   9C    basis set group =>   4
Atom  10C    basis set group =>   4
Atom  11C    basis set group =>   4
Atom  12C    basis set group =>   4
Atom  13C    basis set group =>   4
Atom  14C    basis set group =>   4
Atom  15C    basis set group =>   4
Atom  16H    basis set group =>   5
Atom  17H    basis set group =>   5
Atom  18H    basis set group =>   5
Atom  19H    basis set group =>   5
Atom  20H    basis set group =>   5
Atom  21H    basis set group =>   5
Atom  22H    basis set group =>   5
Atom  23H    basis set group =>   5
Atom  24H    basis set group =>   5
Atom  25H    basis set group =>   5
Atom  26H    basis set group =>   5
Atom  27H    basis set group =>   5
Atom  28H    basis set group =>   5
Atom  29H    basis set group =>   5
Atom  30H    basis set group =>   5
Atom  31H    basis set group =>   5


           ************************************************************
           *        Program running with 16 parallel MPI-processes    *
           *              working on a common directory               *
           ************************************************************
------------------------------------------------------------------------------
                             ORCA STARTUP CALCULATIONS
                           -- RI-GTO INTEGRALS CHOSEN --
------------------------------------------------------------------------------
------------------------------------------------------------------------------
                   ___                                                        
                  /   \      - P O W E R E D   B Y -                         
                 /     \                                                     
                 |  |  |   _    _      __       _____    __    __             
                 |  |  |  | |  | |    /  \     |  _  \  |  |  /  |          
                  \  \/   | |  | |   /    \    | | | |  |  | /  /          
                 / \  \   | |__| |  /  /\  \   | |_| |  |  |/  /          
                |  |  |   |  __  | /  /__\  \  |    /   |      \           
                |  |  |   | |  | | |   __   |  |    \   |  |\   \          
                \     /   | |  | | |  |  |  |  | |\  \  |  | \   \       
                 \___/    |_|  |_| |__|  |__|  |_| \__\ |__|  \__/        
                                                                              
                      - O R C A' S   B I G   F R I E N D -                    
                                      &                                       
                       - I N T E G R A L  F E E D E R -                       
                                                                              
 v1 FN, 2020, v2 2021, v3 2022-2024                                           
------------------------------------------------------------------------------


----------------------
SHARK INTEGRAL PACKAGE
----------------------

Number of atoms                             ...     32
Number of basis functions                   ...    370
Number of shells                            ...    196
Maximum angular momentum                    ...      2
Integral batch strategy                     ... SHARK/LIBINT Hybrid
RI-J (if used) integral strategy            ... SPLIT-RIJ (Revised 2003 algorithm where possible)
Printlevel                                  ...      1
Contraction scheme used                     ... SEGMENTED contraction
Prescreening option                         ... SCHWARTZ
   Thresh                                   ... 2.500e-11
   Tcut                                     ... 2.500e-12
   Tpresel                                  ... 2.500e-12 
Coulomb Range Separation                    ... NOT USED
Exchange Range Separation                   ... NOT USED
Multipole approximations                    ... NOT USED
Finite Nucleus Model                        ... NOT USED
CABS basis                                  ... NOT available
Auxiliary Coulomb fitting basis             ... AVAILABLE
   # of basis functions in Aux-J            ...    597
   # of shells in Aux-J                     ...    261
   Maximum angular momentum in Aux-J        ...      4
Auxiliary J/K fitting basis                 ... NOT available
Auxiliary Correlation fitting basis         ... NOT available
Auxiliary 'external' fitting basis          ... NOT available

Checking pre-screening integrals            ... done (  0.0 sec) Dimension = 196
Check shell pair data                       ... done (  0.0 sec)
Shell pair information
Shell pair cut-off parameter TPreSel        ...   2.5e-12
Total number of shell pairs                 ...     19306
Shell pairs after pre-screening             ...     16363
Total number of primitive shell pairs       ...     71671
Primitive shell pairs kept                  ...     39802
          la=0 lb=0:   6632 shell pairs
          la=1 lb=0:   5544 shell pairs
          la=1 lb=1:   1160 shell pairs
          la=2 lb=0:   2008 shell pairs
          la=2 lb=1:    852 shell pairs
          la=2 lb=2:    167 shell pairs

Calculating one electron integrals          ... done (  0.0 sec)
Calculating RI/J V-Matrix + Cholesky decomp.... done (  0.0 sec)
Calculating Nuclear repulsion               ... done (  0.0 sec) ENN=   1379.535740559520 Eh

Diagonalization of the overlap matrix:
Smallest eigenvalue                        ... 3.509e-05
Time for diagonalization                   ...    0.011 sec
Threshold for overlap eigenvalues          ... 1.000e-07
Number of eigenvalues below threshold      ... 0
Time for construction of square roots      ...    0.006 sec
Total time needed                          ...    0.018 sec

-------------------
DFT GRID GENERATION
-------------------

General Integration Accuracy     IntAcc      ... 4.959
Radial Grid Type                 RadialGrid  ... OptM3 with GC (2021)
Angular Grid (max. ang.)         AngularGrid ... 6 (Lebedev-590)
Angular grid pruning method      GridPruning ... 4 (adaptive)
Weight generation scheme         WeightScheme... mBecke (2022)
Basis function cutoff            BFCut       ... 1.0000e-11
Integration weight cutoff        WCut        ... 1.0000e-14
Partially contracted basis set               ... off
Rotationally invariant grid construction     ... off
Angular grids for H and He will be reduced by one unit
Diffuse basis detected: some atoms will have their outermost
                        angular grid increased by 1.

Total number of grid points                  ...   364155
Total number of batches                      ...     5706
Average number of points per batch           ...       63
Average number of grid points per atom       ...    11380
Initializing property integral containers    ... done (  0.0 sec)

SHARK setup successfully completed in   2.8 seconds

Maximum memory used throughout the entire STARTUP-calculation: 85.7 MB


           ************************************************************
           *        Program running with 16 parallel MPI-processes    *
           *              working on a common directory               *
           ************************************************************
-------------------------------------------------------------------------------
                                 ORCA GUESS
                   Start orbitals & Density for SCF / CASSCF
-------------------------------------------------------------------------------

------------
SCF SETTINGS
------------
Hamiltonian:
 Density Functional     Method          .... DFT(GTOs)
 Exchange Functional    Exchange        .... B973C
 Correlation Functional Correlation     .... B973C
 Gradients option       PostSCFGGA      .... off
 RI-approximation to the Coulomb term is turned on
   Number of AuxJ basis functions       .... 597


General Settings:
 Integral files         IntName         .... m1_00_Vitamin_B7-QM3_001-B97-3C-TZ
 Hartree-Fock type      HFTyp           .... RHF
 Total Charge           Charge          ....    0
 Multiplicity           Mult            ....    1
 Number of Electrons    NEL             ....  130
 Basis Dimension        Dim             ....  370
 Nuclear Repulsion      ENuc            ....   1379.5357405595 Eh

Convergence Acceleration:
 AO-DIIS                CNVDIIS         .... on
   Start iteration      DIISMaxIt       ....    12
   Startup error        DIISStart       ....  0.200000
   # of expansion vecs  DIISMaxEq       ....     5
   Bias factor          DIISBfac        ....   1.050
   Max. coefficient     DIISMaxC        ....  10.000
 MO-DIIS                CNVKDIIS        .... off
 Trust-Rad. Augm. Hess. CNVTRAH         .... off
 SOSCF                  CNVSOSCF        .... on
   Start iteration      SOSCFMaxIt      ....   150
   Startup grad/error   SOSCFStart      ....  0.003300
   Hessian update       SOSCFHessUp     .... L-BFGS
 Level Shifting         CNVShift        .... on
   Level shift para.    LevelShift      ....    0.2500
   Turn off err/grad.   ShiftErr        ....    0.0010
 Zerner damping         CNVZerner       .... off
 Static damping         CNVDamp         .... on
   Fraction old density DampFac         ....    0.7000
   Max. Damping (<1)    DampMax         ....    0.9800
   Min. Damping (>=0)   DampMin         ....    0.0000
   Turn off err/grad.   DampErr         ....    0.1000

SCF Procedure:
 Maximum # iterations   MaxIter         ....   800
 SCF integral mode      SCFMode         .... Direct
   Integral package                     .... SHARK and LIBINT hybrid scheme
 Reset frequency        DirectResetFreq ....    20
 Integral Threshold     Thresh          ....  2.500e-11 Eh
 Primitive CutOff       TCut            ....  2.500e-12 Eh

Convergence Tolerance:
 Convergence Check Mode ConvCheckMode   .... Total+1el-Energy
 Convergence forced     ConvForced      .... 0
 Energy Change          TolE            ....  1.000e-08 Eh
 1-El. energy change                    ....  1.000e-05 Eh
 Orbital Gradient       TolG            ....  1.000e-05
 Orbital Rotation angle TolX            ....  1.000e-05
 DIIS Error             TolErr          ....  5.000e-07

--------------------------------
INITIAL GUESS: MINIMAL BASIS EHT
--------------------------------
The minimal basis has 100 functions
EHT matrix was diagonalized
Basis set overlap was calculated now projecting the orbitals
Using GuessMode=FMatrix for the initial guess
C*T matrix was formed
Effective Fockian was calculated
Effective Fockian was diagonalized
Initial density was built
                      ------------------
                      INITIAL GUESS DONE
                      ------------------
             **** ENERGY FILE WAS UPDATED (m1_00_Vitamin_B7-QM3_001-B97-3C-TZ.en.tmp) ****
Finished Guess after   0.2 sec
Maximum memory used throughout the entire GUESS-calculation: 29.7 MB


           ************************************************************
           *        Program running with 16 parallel MPI-processes    *
           *              working on a common directory               *
           ************************************************************

-------------------------------------------------------------------------------------------
                                      ORCA LEAN-SCF
                              memory conserving SCF solver
-------------------------------------------------------------------------------------------

----------------------------------------D-I-I-S--------------------------------------------
Iteration    Energy (Eh)           Delta-E    RMSDP     MaxDP     DIISErr   Damp  Time(sec)
-------------------------------------------------------------------------------------------
               ***  Starting incremental Fock matrix formation  ***
    1    -1120.8865010098418225     0.00e+00  5.57e-03  1.52e-01  8.30e-01  0.700   0.6
    2    -1121.8533454049650118    -9.67e-01  4.12e-03  1.07e-01  5.56e-01  0.700   0.6
    3    -1122.3481534016962087    -4.95e-01  2.81e-03  8.31e-02  3.70e-01  0.700   0.6
    4    -1122.7106146622393226    -3.62e-01  2.02e-03  6.74e-02  2.49e-01  0.700   0.6
                               ***Turning on AO-DIIS***
    5    -1122.9664487575830663    -2.56e-01  1.48e-03  6.28e-02  1.68e-01  0.700   0.6
    6    -1123.1433743750951635    -1.77e-01  1.06e-03  4.02e-02  1.20e-01  0.700   0.6
    7    -1123.2680673450456652    -1.25e-01  7.82e-04  2.45e-02  8.49e-02  0.700   0.6
    8    -1123.3554469178423005    -8.74e-02  1.79e-03  5.69e-02  5.93e-02  0.000   0.6
    9    -1123.5593744669406533    -2.04e-01  1.53e-04  5.63e-03  8.67e-03  0.000   0.6
   10    -1123.5595571785922857    -1.83e-04  4.39e-05  1.83e-03  6.17e-03  0.000   0.6
                              *** Initializing SOSCF ***
---------------------------------------S-O-S-C-F--------------------------------------
Iteration    Energy (Eh)           Delta-E    RMSDP     MaxDP     MaxGrad    Time(sec)
--------------------------------------------------------------------------------------
   11    -1123.5596502051841981    -9.30e-05  2.36e-05  1.51e-03  9.98e-04     0.6
               *** Restarting incremental Fock matrix formation ***
   12    -1123.5596580384947174    -7.83e-06  2.18e-05  1.38e-03  1.50e-04     0.6
   13    -1123.5596560257847614     2.01e-06  9.86e-06  4.15e-04  4.34e-04     0.5
   14    -1123.5596584808934040    -2.46e-06  8.74e-06  3.12e-04  4.38e-05     0.5
   15    -1123.5596583503804595     1.31e-07  4.60e-06  1.61e-04  5.22e-05     0.5
   16    -1123.5596585433802375    -1.93e-07  7.25e-06  7.13e-04  9.85e-06     0.5
   17    -1123.5596585239202341     1.95e-08  2.02e-06  1.03e-04  1.96e-05     0.5
   18    -1123.5596585432897427    -1.94e-08  3.96e-06  5.21e-04  3.33e-06     0.5
   19    -1123.5596585494279225    -6.14e-09  1.15e-06  1.14e-04  5.48e-06     0.5
                 **** Energy Check signals convergence ****

               *****************************************************
               *                     SUCCESS                       *
               *           SCF CONVERGED AFTER  19 CYCLES          *
               *****************************************************

             **** ENERGY FILE WAS UPDATED (m1_00_Vitamin_B7-QM3_001-B97-3C-TZ.en.tmp) ****

----------------
TOTAL SCF ENERGY
----------------

Total Energy       :      -1123.55965854942792 Eh          -30573.61264 eV

Components:
Nuclear Repulsion  :       1379.53574055952026 Eh           37539.07595 eV
Electronic Energy  :      -2503.09539910894819 Eh          -68112.68859 eV
One Electron Energy:      -4281.09256991813436 Eh         -116494.45129 eV
Two Electron Energy:       1777.99717080918617 Eh           48381.76270 eV

Virial components:
Potential Energy   :      -2244.24417051043929 Eh          -61068.98857 eV
Kinetic Energy     :       1120.68451196101137 Eh           30495.37593 eV
Virial Ratio       :          2.00256552719140

DFT components:
N(Alpha)           :       64.999998058700 electrons
N(Beta)            :       64.999998058700 electrons
N(Total)           :      129.999996117401 electrons
E(XC)              :     -125.217040539093 Eh       

---------------
SCF CONVERGENCE
---------------

  Last Energy change         ...    6.1382e-09  Tolerance :   1.0000e-08
  Last MAX-Density change    ...    1.1420e-04  Tolerance :   1.0000e-07
  Last RMS-Density change    ...    1.1485e-06  Tolerance :   5.0000e-09
  Last DIIS Error            ...    9.9827e-04  Tolerance :   5.0000e-07
  Last Orbital Gradient      ...    5.4808e-06  Tolerance :   1.0000e-05
  Last Orbital Rotation      ...    6.7004e-06  Tolerance :   1.0000e-05


----------------
ORBITAL ENERGIES
----------------

  NO   OCC          E(Eh)            E(eV) 
   0   2.0000     -88.024488     -2395.2681 
   1   2.0000     -18.773130      -510.8428 
   2   2.0000     -18.728460      -509.6273 
   3   2.0000     -18.720383      -509.4075 
   4   2.0000     -14.019290      -381.4843 
   5   2.0000     -14.001789      -381.0080 
   6   2.0000     -10.012948      -272.4662 
   7   2.0000     -10.012259      -272.4474 
   8   2.0000      -9.953838      -270.8577 
   9   2.0000      -9.947018      -270.6721 
  10   2.0000      -9.931294      -270.2443 
  11   2.0000      -9.931183      -270.2412 
  12   2.0000      -9.900661      -269.4107 
  13   2.0000      -9.899877      -269.3894 
  14   2.0000      -9.891596      -269.1640 
  15   2.0000      -9.890099      -269.1233 
  16   2.0000      -7.716073      -209.9650 
  17   2.0000      -5.747783      -156.4051 
  18   2.0000      -5.743275      -156.2825 
  19   2.0000      -5.734225      -156.0362 
  20   2.0000      -1.022382       -27.8204 
  21   2.0000      -0.987235       -26.8640 
  22   2.0000      -0.935462       -25.4552 
  23   2.0000      -0.910430       -24.7741 
  24   2.0000      -0.830129       -22.5890 
  25   2.0000      -0.791586       -21.5401 
  26   2.0000      -0.749843       -20.4043 
  27   2.0000      -0.707429       -19.2501 
  28   2.0000      -0.669417       -18.2158 
  29   2.0000      -0.664815       -18.0905 
  30   2.0000      -0.612364       -16.6633 
  31   2.0000      -0.589378       -16.0378 
  32   2.0000      -0.565685       -15.3931 
  33   2.0000      -0.552066       -15.0225 
  34   2.0000      -0.534587       -14.5469 
  35   2.0000      -0.526034       -14.3141 
  36   2.0000      -0.489956       -13.3324 
  37   2.0000      -0.474801       -12.9200 
  38   2.0000      -0.462678       -12.5901 
  39   2.0000      -0.455394       -12.3919 
  40   2.0000      -0.432805       -11.7772 
  41   2.0000      -0.423473       -11.5233 
  42   2.0000      -0.420472       -11.4416 
  43   2.0000      -0.412295       -11.2191 
  44   2.0000      -0.401511       -10.9257 
  45   2.0000      -0.393868       -10.7177 
  46   2.0000      -0.385726       -10.4961 
  47   2.0000      -0.379801       -10.3349 
  48   2.0000      -0.368059       -10.0154 
  49   2.0000      -0.359045        -9.7701 
  50   2.0000      -0.354902        -9.6574 
  51   2.0000      -0.347562        -9.4576 
  52   2.0000      -0.333469        -9.0742 
  53   2.0000      -0.323154        -8.7935 
  54   2.0000      -0.315289        -8.5795 
  55   2.0000      -0.307573        -8.3695 
  56   2.0000      -0.302635        -8.2351 
  57   2.0000      -0.294303        -8.0084 
  58   2.0000      -0.285941        -7.7809 
  59   2.0000      -0.275638        -7.5005 
  60   2.0000      -0.243733        -6.6323 
  61   2.0000      -0.237989        -6.4760 
  62   2.0000      -0.229908        -6.2561 
  63   2.0000      -0.215409        -5.8616 
  64   2.0000      -0.198057        -5.3894 
  65   0.0000      -0.028798        -0.7836 
  66   0.0000      -0.012825        -0.3490 
  67   0.0000       0.007050         0.1918 
  68   0.0000       0.009644         0.2624 
  69   0.0000       0.023108         0.6288 
  70   0.0000       0.036805         1.0015 
  71   0.0000       0.040461         1.1010 
  72   0.0000       0.045969         1.2509 
  73   0.0000       0.060782         1.6540 
  74   0.0000       0.067697         1.8421 
  75   0.0000       0.070095         1.9074 
*Only the first 10 virtual orbitals were printed.

                    ********************************
                    * MULLIKEN POPULATION ANALYSIS *
                    ********************************

-----------------------
MULLIKEN ATOMIC CHARGES
-----------------------
   0 S :   -0.004462
   1 O :   -0.518480
   2 O :   -0.448417
   3 O :   -0.458915
   4 N :   -0.315895
   5 N :   -0.400911
   6 C :   -0.265738
   7 C :   -0.033193
   8 C :   -0.082003
   9 C :   -0.414174
  10 C :   -0.487836
  11 C :   -0.315336
  12 C :    0.315876
  13 C :   -0.273358
  14 C :   -0.363388
  15 C :    0.343291
  16 H :    0.200622
  17 H :    0.183221
  18 H :    0.231841
  19 H :    0.213881
  20 H :    0.200387
  21 H :    0.193986
  22 H :    0.284383
  23 H :    0.366024
  24 H :    0.354125
  25 H :    0.172418
  26 H :    0.180057
  27 H :    0.182675
  28 H :    0.167988
  29 H :    0.178798
  30 H :    0.185653
  31 H :    0.426883
Sum of atomic charges:   -0.0000000

--------------------------------
MULLIKEN REDUCED ORBITAL CHARGES
--------------------------------
  0 S s       :     5.902907  s :     5.902907
      pz      :     2.977059  p :    10.017624
      px      :     3.306459
      py      :     3.734106
      dz2     :     0.020725  d :     0.083931
      dxz     :     0.025409
      dyz     :     0.013093
      dx2y2   :     0.014269
      dxy     :     0.010435

  1 O s       :     3.850325  s :     3.850325
      pz      :     1.722309  p :     4.635399
      px      :     1.475855
      py      :     1.437234
      dz2     :     0.007041  d :     0.032756
      dxz     :     0.003170
      dyz     :     0.005590
      dx2y2   :     0.003143
      dxy     :     0.013812

  2 O s       :     3.746227  s :     3.746227
      pz      :     1.286838  p :     4.671703
      px      :     1.717923
      py      :     1.666942
      dz2     :     0.005791  d :     0.030487
      dxz     :     0.001241
      dyz     :     0.011105
      dx2y2   :     0.006024
      dxy     :     0.006327

  3 O s       :     3.837347  s :     3.837347
      pz      :     1.771593  p :     4.586448
      px      :     1.491012
      py      :     1.323842
      dz2     :     0.005512  d :     0.035121
      dxz     :     0.003237
      dyz     :     0.009922
      dx2y2   :     0.011935
      dxy     :     0.004515

  4 N s       :     3.366499  s :     3.366499
      pz      :     1.270988  p :     3.908116
      px      :     1.240986
      py      :     1.396142
      dz2     :     0.008455  d :     0.041281
      dxz     :     0.009482
      dyz     :     0.009054
      dx2y2   :     0.008726
      dxy     :     0.005565

  5 N s       :     3.332634  s :     3.332634
      pz      :     1.267772  p :     4.028498
      px      :     1.337238
      py      :     1.423488
      dz2     :     0.009638  d :     0.039779
      dxz     :     0.008342
      dyz     :     0.008281
      dx2y2   :     0.007245
      dxy     :     0.006272

  6 C s       :     3.243932  s :     3.243932
      pz      :     0.956238  p :     2.955983
      px      :     0.875434
      py      :     1.124312
      dz2     :     0.014689  d :     0.065822
      dxz     :     0.012640
      dyz     :     0.006695
      dx2y2   :     0.019207
      dxy     :     0.012591

  7 C s       :     3.083557  s :     3.083557
      pz      :     1.031585  p :     2.885059
      px      :     0.902753
      py      :     0.950720
      dz2     :     0.010911  d :     0.064577
      dxz     :     0.010755
      dyz     :     0.012397
      dx2y2   :     0.017699
      dxy     :     0.012816

  8 C s       :     3.021428  s :     3.021428
      pz      :     1.053952  p :     3.010254
      px      :     0.895958
      py      :     1.060344
      dz2     :     0.009025  d :     0.050321
      dxz     :     0.008068
      dyz     :     0.012136
      dx2y2   :     0.011698
      dxy     :     0.009394

  9 C s       :     3.186818  s :     3.186818
      pz      :     1.011779  p :     3.183770
      px      :     1.002602
      py      :     1.169389
      dz2     :     0.008771  d :     0.043587
      dxz     :     0.010145
      dyz     :     0.006003
      dx2y2   :     0.013281
      dxy     :     0.005387

 10 C s       :     3.243570  s :     3.243570
      pz      :     1.042644  p :     3.199642
      px      :     1.146774
      py      :     1.010224
      dz2     :     0.008644  d :     0.044625
      dxz     :     0.009992
      dyz     :     0.008923
      dx2y2   :     0.008634
      dxy     :     0.008432

 11 C s       :     3.171440  s :     3.171440
      pz      :     0.973419  p :     3.099363
      px      :     1.122221
      py      :     1.003724
      dz2     :     0.009156  d :     0.044533
      dxz     :     0.009040
      dyz     :     0.009557
      dx2y2   :     0.009127
      dxy     :     0.007652

 12 C s       :     3.038995  s :     3.038995
      pz      :     0.849000  p :     2.512710
      px      :     0.863935
      py      :     0.799775
      dz2     :     0.019138  d :     0.132419
      dxz     :     0.029889
      dyz     :     0.029141
      dx2y2   :     0.036086
      dxy     :     0.018166

 13 C s       :     3.165617  s :     3.165617
      pz      :     1.109958  p :     3.063397
      px      :     0.963014
      py      :     0.990424
      dz2     :     0.006701  d :     0.044344
      dxz     :     0.007172
      dyz     :     0.011541
      dx2y2   :     0.010695
      dxy     :     0.008237

 14 C s       :     3.184126  s :     3.184126
      pz      :     1.025641  p :     3.135997
      px      :     0.997559
      py      :     1.112796
      dz2     :     0.008781  d :     0.043266
      dxz     :     0.008878
      dyz     :     0.008437
      dx2y2   :     0.009043
      dxy     :     0.008127

 15 C s       :     3.132821  s :     3.132821
      pz      :     0.818726  p :     2.398924
      px      :     0.808035
      py      :     0.772163
      dz2     :     0.022085  d :     0.124964
      dxz     :     0.014652
      dyz     :     0.046188
      dx2y2   :     0.017896
      dxy     :     0.024144

 16 H s       :     0.799378  s :     0.799378

 17 H s       :     0.816779  s :     0.816779

 18 H s       :     0.768159  s :     0.768159

 19 H s       :     0.786119  s :     0.786119

 20 H s       :     0.799613  s :     0.799613

 21 H s       :     0.806014  s :     0.806014

 22 H s       :     0.715617  s :     0.715617

 23 H s       :     0.633976  s :     0.633976

 24 H s       :     0.645875  s :     0.645875

 25 H s       :     0.827582  s :     0.827582

 26 H s       :     0.819943  s :     0.819943

 27 H s       :     0.817325  s :     0.817325

 28 H s       :     0.832012  s :     0.832012

 29 H s       :     0.821202  s :     0.821202

 30 H s       :     0.814347  s :     0.814347

 31 H s       :     0.573117  s :     0.573117



                     *******************************
                     * LOEWDIN POPULATION ANALYSIS *
                     *******************************

----------------------
LOEWDIN ATOMIC CHARGES
----------------------
   0 S :    0.375301
   1 O :   -0.573628
   2 O :   -0.536051
   3 O :   -0.525422
   4 N :   -0.220119
   5 N :   -0.237595
   6 C :   -0.117251
   7 C :   -0.111795
   8 C :   -0.342948
   9 C :   -0.445735
  10 C :   -0.313866
  11 C :   -0.291236
  12 C :    0.277247
  13 C :   -0.270070
  14 C :   -0.221321
  15 C :    0.345366
  16 H :    0.166974
  17 H :    0.161035
  18 H :    0.171146
  19 H :    0.162721
  20 H :    0.156834
  21 H :    0.162002
  22 H :    0.185495
  23 H :    0.337942
  24 H :    0.298635
  25 H :    0.166366
  26 H :    0.157109
  27 H :    0.158208
  28 H :    0.165316
  29 H :    0.181150
  30 H :    0.177722
  31 H :    0.400467

-------------------------------
LOEWDIN REDUCED ORBITAL CHARGES
-------------------------------
  0 S s       :     5.422658  s :     5.422658
      pz      :     3.023884  p :    10.101818
      px      :     3.334209
      py      :     3.743725
      dz2     :     0.025918  d :     0.100222
      dxz     :     0.030482
      dyz     :     0.015400
      dx2y2   :     0.016562
      dxy     :     0.011861

  1 O s       :     3.527903  s :     3.527903
      pz      :     1.682883  p :     4.741648
      px      :     1.546181
      py      :     1.512584
      dz2     :     0.047333  d :     0.304076
      dxz     :     0.049523
      dyz     :     0.066488
      dx2y2   :     0.069522
      dxy     :     0.071211

  2 O s       :     3.490991  s :     3.490991
      pz      :     1.375047  p :     4.715929
      px      :     1.682218
      py      :     1.658664
      dz2     :     0.095147  d :     0.329131
      dxz     :     0.050966
      dyz     :     0.102509
      dx2y2   :     0.040692
      dxy     :     0.039816

  3 O s       :     3.526202  s :     3.526202
      pz      :     1.726063  p :     4.689191
      px      :     1.486692
      py      :     1.476436
      dz2     :     0.042758  d :     0.310029
      dxz     :     0.036291
      dyz     :     0.094818
      dx2y2   :     0.070849
      dxy     :     0.065313

  4 N s       :     3.121811  s :     3.121811
      pz      :     1.279798  p :     4.022056
      px      :     1.320738
      py      :     1.421520
      dz2     :     0.015629  d :     0.076252
      dxz     :     0.016197
      dyz     :     0.017229
      dx2y2   :     0.015757
      dxy     :     0.011441

  5 N s       :     3.111774  s :     3.111774
      pz      :     1.285015  p :     4.050791
      px      :     1.319589
      py      :     1.446187
      dz2     :     0.016831  d :     0.075030
      dxz     :     0.017719
      dyz     :     0.014059
      dx2y2   :     0.013730
      dxy     :     0.012692

  6 C s       :     2.875455  s :     2.875455
      pz      :     1.049860  p :     3.111849
      px      :     0.974908
      py      :     1.087082
      dz2     :     0.029319  d :     0.129946
      dxz     :     0.027960
      dyz     :     0.011353
      dx2y2   :     0.036151
      dxy     :     0.025164

  7 C s       :     2.876589  s :     2.876589
      pz      :     1.062176  p :     3.108896
      px      :     1.021476
      py      :     1.025244
      dz2     :     0.023399  d :     0.126310
      dxz     :     0.019869
      dyz     :     0.022584
      dx2y2   :     0.034526
      dxy     :     0.025931

  8 C s       :     2.961202  s :     2.961202
      pz      :     1.109102  p :     3.284141
      px      :     1.053860
      py      :     1.121179
      dz2     :     0.015927  d :     0.097605
      dxz     :     0.017105
      dyz     :     0.021222
      dx2y2   :     0.024454
      dxy     :     0.018897

  9 C s       :     3.015006  s :     3.015006
      pz      :     1.102188  p :     3.350940
      px      :     1.086976
      py      :     1.161776
      dz2     :     0.016310  d :     0.079789
      dxz     :     0.018636
      dyz     :     0.011239
      dx2y2   :     0.023682
      dxy     :     0.009922

 10 C s       :     2.927341  s :     2.927341
      pz      :     1.096804  p :     3.305633
      px      :     1.138435
      py      :     1.070394
      dz2     :     0.017536  d :     0.080892
      dxz     :     0.016298
      dyz     :     0.016635
      dx2y2   :     0.016632
      dxy     :     0.013791

 11 C s       :     2.931521  s :     2.931521
      pz      :     1.075334  p :     3.279986
      px      :     1.116399
      py      :     1.088254
      dz2     :     0.018347  d :     0.079729
      dxz     :     0.014998
      dyz     :     0.017240
      dx2y2   :     0.015859
      dxy     :     0.013285

 12 C s       :     2.737357  s :     2.737357
      pz      :     0.895275  p :     2.696620
      px      :     0.907551
      py      :     0.893795
      dz2     :     0.040615  d :     0.288775
      dxz     :     0.065556
      dyz     :     0.064161
      dx2y2   :     0.073600
      dxy     :     0.044843

 13 C s       :     2.930535  s :     2.930535
      pz      :     1.125280  p :     3.260104
      px      :     1.044570
      py      :     1.090254
      dz2     :     0.011702  d :     0.079431
      dxz     :     0.012228
      dyz     :     0.018487
      dx2y2   :     0.021335
      dxy     :     0.015678

 14 C s       :     2.918991  s :     2.918991
      pz      :     1.068723  p :     3.227156
      px      :     1.061185
      py      :     1.097249
      dz2     :     0.015597  d :     0.075174
      dxz     :     0.015485
      dyz     :     0.014045
      dx2y2   :     0.016797
      dxy     :     0.013249

 15 C s       :     2.742658  s :     2.742658
      pz      :     0.910386  p :     2.634783
      px      :     0.762499
      py      :     0.961899
      dz2     :     0.048701  d :     0.277192
      dxz     :     0.028535
      dyz     :     0.106764
      dx2y2   :     0.044146
      dxy     :     0.049046

 16 H s       :     0.833026  s :     0.833026

 17 H s       :     0.838965  s :     0.838965

 18 H s       :     0.828854  s :     0.828854

 19 H s       :     0.837279  s :     0.837279

 20 H s       :     0.843166  s :     0.843166

 21 H s       :     0.837998  s :     0.837998

 22 H s       :     0.814505  s :     0.814505

 23 H s       :     0.662058  s :     0.662058

 24 H s       :     0.701365  s :     0.701365

 25 H s       :     0.833634  s :     0.833634

 26 H s       :     0.842891  s :     0.842891

 27 H s       :     0.841792  s :     0.841792

 28 H s       :     0.834684  s :     0.834684

 29 H s       :     0.818850  s :     0.818850

 30 H s       :     0.822278  s :     0.822278

 31 H s       :     0.599533  s :     0.599533



                      *****************************
                      * MAYER POPULATION ANALYSIS *
                      *****************************

  NA   - Mulliken gross atomic population
  ZA   - Total nuclear charge
  QA   - Mulliken gross atomic charge
  VA   - Mayer's total valence
  BVA  - Mayer's bonded valence
  FA   - Mayer's free valence

  ATOM       NA         ZA         QA         VA         BVA        FA
  0 S     16.0045    16.0000    -0.0045     2.1246     2.1246    -0.0000
  1 O      8.5185     8.0000    -0.5185     1.9939     1.9939     0.0000
  2 O      8.4484     8.0000    -0.4484     1.8332     1.8332     0.0000
  3 O      8.4589     8.0000    -0.4589     1.9926     1.9926     0.0000
  4 N      7.3159     7.0000    -0.3159     2.8302     2.8302    -0.0000
  5 N      7.4009     7.0000    -0.4009     2.9537     2.9537    -0.0000
  6 C      6.2657     6.0000    -0.2657     3.8197     3.8197    -0.0000
  7 C      6.0332     6.0000    -0.0332     3.7341     3.7341     0.0000
  8 C      6.0820     6.0000    -0.0820     3.4386     3.4386     0.0000
  9 C      6.4142     6.0000    -0.4142     3.8275     3.8275    -0.0000
 10 C      6.4878     6.0000    -0.4878     3.8986     3.8986    -0.0000
 11 C      6.3153     6.0000    -0.3153     3.6196     3.6196    -0.0000
 12 C      5.6841     6.0000     0.3159     4.3515     4.3515     0.0000
 13 C      6.2734     6.0000    -0.2734     3.7101     3.7101    -0.0000
 14 C      6.3634     6.0000    -0.3634     3.8025     3.8025    -0.0000
 15 C      5.6567     6.0000     0.3433     3.9648     3.9648    -0.0000
 16 H      0.7994     1.0000     0.2006     0.9467     0.9467    -0.0000
 17 H      0.8168     1.0000     0.1832     0.9495     0.9495     0.0000
 18 H      0.7682     1.0000     0.2318     0.9196     0.9196     0.0000
 19 H      0.7861     1.0000     0.2139     0.9258     0.9258    -0.0000
 20 H      0.7996     1.0000     0.2004     0.9448     0.9448     0.0000
 21 H      0.8060     1.0000     0.1940     0.9280     0.9280    -0.0000
 22 H      0.7156     1.0000     0.2844     0.8463     0.8463    -0.0000
 23 H      0.6340     1.0000     0.3660     0.8862     0.8862     0.0000
 24 H      0.6459     1.0000     0.3541     0.8580     0.8580    -0.0000
 25 H      0.8276     1.0000     0.1724     0.9707     0.9707    -0.0000
 26 H      0.8199     1.0000     0.1801     0.9399     0.9399    -0.0000
 27 H      0.8173     1.0000     0.1827     0.9385     0.9385     0.0000
 28 H      0.8320     1.0000     0.1680     0.9592     0.9592     0.0000
 29 H      0.8212     1.0000     0.1788     0.9531     0.9531    -0.0000
 30 H      0.8143     1.0000     0.1857     0.9494     0.9494    -0.0000
 31 H      0.5731     1.0000     0.4269     0.8251     0.8251     0.0000

  Mayer bond orders larger than 0.100000
B(  0-S ,  8-C ) :   0.9165 B(  0-S ,  9-C ) :   1.0410 B(  1-O , 12-C ) :   1.7728 
B(  1-O , 31-H ) :   0.1959 B(  2-O , 15-C ) :   1.1750 B(  2-O , 31-H ) :   0.6196 
B(  3-O , 15-C ) :   1.8209 B(  3-O , 23-H ) :   0.1195 B(  4-N ,  6-C ) :   0.9491 
B(  4-N , 12-C ) :   1.2202 B(  4-N , 23-H ) :   0.7422 B(  5-N ,  7-C ) :   0.9470 
B(  5-N , 12-C ) :   1.1806 B(  5-N , 24-H ) :   0.8125 B(  6-C ,  7-C ) :   1.0250 
B(  6-C ,  8-C ) :   0.8458 B(  6-C , 16-H ) :   0.9455 B(  7-C ,  9-C ) :   0.9851 
B(  7-C , 17-H ) :   0.8700 B(  8-C , 10-C ) :   0.9062 B(  8-C , 18-H ) :   0.9216 
B(  9-C , 19-H ) :   0.9111 B(  9-C , 20-H ) :   0.9540 B( 10-C , 11-C ) :   0.9326 
B( 10-C , 21-H ) :   0.9053 B( 10-C , 22-H ) :   0.9634 B( 11-C , 13-C ) :   0.8852 
B( 11-C , 25-H ) :   0.9720 B( 11-C , 26-H ) :   0.9177 B( 13-C , 14-C ) :   0.9686 
B( 13-C , 27-H ) :   0.9466 B( 13-C , 28-H ) :   0.9480 B( 14-C , 15-C ) :   0.9413 
B( 14-C , 29-H ) :   0.9401 B( 14-C , 30-H ) :   0.9704 


------------------
HIRSHFELD ANALYSIS
------------------

Total integrated alpha density =     64.999998059
Total integrated beta density  =     64.999998059

  ATOM     CHARGE      SPIN    
   0 S   -0.074439    0.000000
   1 O   -0.290684    0.000000
   2 O   -0.175557    0.000000
   3 O   -0.262035    0.000000
   4 N   -0.129476    0.000000
   5 N   -0.119936    0.000000
   6 C    0.036804    0.000000
   7 C    0.039767    0.000000
   8 C   -0.005549    0.000000
   9 C   -0.040530    0.000000
  10 C   -0.056234    0.000000
  11 C   -0.043644    0.000000
  12 C    0.196747    0.000000
  13 C   -0.034106    0.000000
  14 C   -0.044290    0.000000
  15 C    0.219414    0.000000
  16 H    0.036414    0.000000
  17 H    0.033553    0.000000
  18 H    0.040649    0.000000
  19 H    0.042837    0.000000
  20 H    0.030834    0.000000
  21 H    0.025201    0.000000
  22 H    0.012249    0.000000
  23 H    0.102989    0.000000
  24 H    0.144021    0.000000
  25 H    0.023886    0.000000
  26 H    0.026491    0.000000
  27 H    0.031637    0.000000
  28 H    0.029810    0.000000
  29 H    0.039919    0.000000
  30 H    0.037999    0.000000
  31 H    0.125263    0.000000

  TOTAL   0.000004    0.000000

-------
TIMINGS
-------

Total SCF time: 0 days 0 hours 0 min 11 sec 

Total time                  ....      11.821 sec
Sum of individual times     ....      11.672 sec  ( 98.7%)

SCF preparation             ....       0.224 sec  (  1.9%)
Fock matrix formation       ....       9.733 sec  ( 82.3%)
  Startup                   ....       0.025 sec  (  0.3% of F)
  Split-RI-J                ....       1.715 sec  ( 17.6% of F)
  XC integration            ....       7.596 sec  ( 78.0% of F)
    XC Preparation          ....       0.000 sec  (  0.0% of XC)
    Basis function eval.    ....       1.674 sec  ( 22.0% of XC)
    Density eval.           ....       1.855 sec  ( 24.4% of XC)
    XC-Functional eval.     ....       0.157 sec  (  2.1% of XC)
    XC-Potential eval.      ....       1.483 sec  ( 19.5% of XC)
Diagonalization             ....       0.000 sec  (  0.0%)
Density matrix formation    ....       0.104 sec  (  0.9%)
Total Energy calculation    ....       0.040 sec  (  0.3%)
Population analysis         ....       0.808 sec  (  6.8%)
Orbital Transformation      ....       0.060 sec  (  0.5%)
Orbital Orthonormalization  ....       0.000 sec  (  0.0%)
DIIS solution               ....       0.487 sec  (  4.1%)
SOSCF solution              ....       0.215 sec  (  1.8%)
Finished LeanSCF after  11.9 sec

[...]
 25:    529.29   0.002368   11.97  0.001396  ( 0.021818  0.010224 -0.028558)
 26:    591.60   0.002742   13.86  0.001446  ( 0.012098 -0.012330  0.033880)
 27:    595.94   0.000189    0.95  0.000099  ( 0.004054  0.003586  0.008338)
 28:    668.61   0.009227   46.63  0.004306  (-0.011116  0.064675  0.000130)
 29:    701.03   0.003666   18.53  0.001632  ( 0.011368 -0.038349 -0.005664)
 30:    721.22   0.000429    2.17  0.000186  (-0.009376  0.004223 -0.008942)
 31:    723.85   0.003653   18.46  0.001575  (-0.024592  0.030660 -0.005495)
 32:    739.95   0.001771    8.95  0.000747  ( 0.024127 -0.006498  0.011071)
 33:    757.55   0.015776   79.72  0.006499  ( 0.022105 -0.070632  0.031955)
 34:    779.84   0.006431   32.50  0.002573  ( 0.024093 -0.044343  0.005161)
 35:    797.47   0.005582   28.21  0.002184  (-0.039490  0.018469  0.016839)
 36:    799.57   0.000301    1.52  0.000117  (-0.009827  0.004516  0.000715)
 37:    812.82   0.003655   18.47  0.001403  ( 0.023610  0.016172 -0.024169)
 38:    883.90   0.007722   39.02  0.002726  (-0.039429 -0.029520  0.017327)
 39:    910.68   0.037628  190.16  0.012894  ( 0.097807  0.040308 -0.041270)
 40:    915.12   0.002024   10.23  0.000690  (-0.024871 -0.003264  0.007799)
 41:    936.15   0.004596   23.23  0.001532  ( 0.029275  0.021830 -0.014091)
 42:    958.40   0.000834    4.21  0.000271  (-0.000263 -0.000049  0.016473)
 43:    972.89   0.000163    0.82  0.000052  (-0.003178 -0.001202  0.006389)
 44:   1000.54   0.000596    3.01  0.000186  ( 0.013228 -0.001180 -0.003061)
 45:   1041.57   0.000441    2.23  0.000132  (-0.002784 -0.009831  0.005279)
 46:   1045.91   0.002666   13.47  0.000795  (-0.016351 -0.005686 -0.022262)
 47:   1066.89   0.001309    6.61  0.000383  ( 0.013256  0.001215 -0.014342)
 48:   1075.07   0.006349   32.09  0.001843  (-0.021357 -0.012999 -0.034900)
 49:   1078.10   0.001037    5.24  0.000300  (-0.000008 -0.015625 -0.007479)
 50:   1107.13   0.002932   14.82  0.000826  ( 0.028251  0.004873  0.002121)
 51:   1122.52   0.001758    8.88  0.000489  (-0.018082 -0.012628  0.001500)
 52:   1155.14   0.005398   27.28  0.001458  ( 0.007382  0.020332  0.031470)
 53:   1173.25   0.001285    6.49  0.000342  (-0.007917 -0.012821 -0.010709)
 54:   1188.72   0.001941    9.81  0.000510  (-0.015778 -0.014013 -0.008012)
 55:   1223.66   0.000525    2.65  0.000134  (-0.008719  0.005405 -0.005348)
 56:   1234.15   0.002030   10.26  0.000513  ( 0.003147  0.001210 -0.022404)
 57:   1247.90   0.004606   23.28  0.001152  ( 0.014030  0.015258  0.026874)
 58:   1271.81   0.015286   77.25  0.003751  ( 0.000254  0.014666  0.059460)
 59:   1279.43   0.005802   29.32  0.001415  ( 0.031115  0.008291  0.019447)
 60:   1288.24   0.009160   46.29  0.002219  (-0.022326  0.001131 -0.041463)
 61:   1302.43   0.003743   18.91  0.000897  ( 0.016117 -0.001343 -0.025203)
 62:   1338.73   0.000130    0.66  0.000030  ( 0.002213 -0.001810 -0.004702)
 63:   1341.82   0.000334    1.69  0.000078  (-0.004981 -0.000920  0.007205)
 64:   1351.18   0.005652   28.56  0.001305  ( 0.031300  0.014419 -0.010851)
 65:   1357.96   0.001930    9.75  0.000444  ( 0.001111 -0.004560  0.020531)
 66:   1366.67   0.001021    5.16  0.000233  ( 0.014101  0.001753 -0.005593)
 67:   1379.40   0.000983    4.97  0.000222  (-0.004630 -0.007923 -0.011752)
 68:   1394.37   0.000333    1.68  0.000074  (-0.003649 -0.001759 -0.007620)
 69:   1399.39   0.000441    2.23  0.000098  (-0.002081  0.000567 -0.009685)
 70:   1426.70   0.013707   69.27  0.002998  ( 0.005348 -0.003340 -0.054390)
 71:   1435.98   0.002128   10.75  0.000462  ( 0.007806 -0.008473 -0.018159)
 72:   1444.45   0.003004   15.18  0.000649  ( 0.007656 -0.011530 -0.021388)
 73:   1484.30   0.002028   10.25  0.000426  ( 0.010216 -0.002252 -0.017802)
 74:   1486.57   0.001188    6.00  0.000249  ( 0.014959 -0.004885 -0.001304)
 75:   1492.49   0.000158    0.80  0.000033  (-0.004217  0.003850 -0.000724)
 76:   1502.77   0.001354    6.84  0.000281  (-0.002887  0.014063 -0.008661)
 77:   1505.88   0.001590    8.03  0.000329  (-0.003238 -0.011763 -0.013438)
 78:   1714.21   0.039489  199.56  0.007189  (-0.082755  0.014661  0.011206)
 79:   1747.36   0.128185  647.79  0.022893  (-0.079957 -0.127862 -0.012277)
 80:   2991.65   0.009164   46.31  0.000956  ( 0.000286 -0.023354  0.020258)
 81:   2992.71   0.004096   20.70  0.000427  (-0.008957 -0.013396 -0.012941)
 82:   3001.10   0.004909   24.81  0.000510  ( 0.011310 -0.018187  0.007193)
 83:   3022.65   0.001620    8.19  0.000167  (-0.009228 -0.002216 -0.008787)
 84:   3027.47   0.002748   13.89  0.000283  (-0.012947 -0.009649  0.004748)
 85:   3031.19   0.004689   23.69  0.000483  ( 0.006834 -0.010165 -0.018239)
 86:   3035.23   0.005837   29.50  0.000600  ( 0.015248 -0.017799  0.007131)
 87:   3041.83   0.002524   12.76  0.000259  (-0.009719  0.009593 -0.008515)
 88:   3043.99   0.009731   49.18  0.000998  ( 0.010333  0.002170 -0.029768)
 89:   3057.89   0.007380   37.30  0.000753  ( 0.000575  0.026578  0.006813)
 90:   3086.54   0.004416   22.32  0.000446  (-0.001742  0.013315  0.016314)
 91:   3094.97   0.003405   17.21  0.000343  ( 0.006625  0.012540 -0.011925)
 92:   3098.70   0.002872   14.51  0.000289  ( 0.015931  0.005315  0.002675)
 93:   3189.23   0.128220  647.97  0.012546  ( 0.005099  0.058508 -0.095379)
 94:   3424.00   0.069471  351.08  0.006332  (-0.031114 -0.033600  0.065073)
 95:   3600.26   0.006865   34.69  0.000595  (-0.001229  0.004978  0.023849)

* The epsilon (eps) is given for a Dirac delta lineshape.
** The dipole moment derivative (T) already includes vibrational overlap.

The first frequency considered to be a vibration is 6
The total number of vibrations considered is 90


--------------------------
THERMOCHEMISTRY AT 298.15K
--------------------------

Temperature         ...   298.15 K
Pressure            ...     1.00 atm
Total Mass          ...   244.31 AMU
Quasi RRHO          ...     True
Cut-Off Frequency   ...     1.00 cm^-1

Throughout the following assumptions are being made:
  (1) The electronic state is orbitally nondegenerate
  (2) There are no thermally accessible electronically excited states
  (3) Hindered rotations indicated by low frequency modes are not
      treated as such but are treated as vibrations and this may
      cause some error
  (4) All equations used are the standard statistical mechanics
      equations for an ideal gas
  (5) All vibrations are strictly harmonic

freq.      46.78  E(vib)   ...       0.53 
freq.      84.38  E(vib)   ...       0.48 
freq.      98.67  E(vib)   ...       0.46 
freq.     110.26  E(vib)   ...       0.45 
freq.     118.51  E(vib)   ...       0.44 
freq.     140.92  E(vib)   ...       0.41 
freq.     151.60  E(vib)   ...       0.40 
freq.     172.92  E(vib)   ...       0.38 
freq.     193.38  E(vib)   ...       0.36 
freq.     247.28  E(vib)   ...       0.31 
freq.     251.64  E(vib)   ...       0.30 
freq.     316.58  E(vib)   ...       0.25 
freq.     330.31  E(vib)   ...       0.24 
freq.     379.40  E(vib)   ...       0.21 
freq.     411.01  E(vib)   ...       0.19 
freq.     436.27  E(vib)   ...       0.17 
freq.     448.71  E(vib)   ...       0.17 
freq.     459.87  E(vib)   ...       0.16 
freq.     510.78  E(vib)   ...       0.14 
freq.     529.29  E(vib)   ...       0.13 
freq.     591.60  E(vib)   ...       0.10 
freq.     595.94  E(vib)   ...       0.10 
freq.     668.61  E(vib)   ...       0.08 
freq.     701.03  E(vib)   ...       0.07 
freq.     721.22  E(vib)   ...       0.07 
freq.     723.85  E(vib)   ...       0.06 
freq.     739.95  E(vib)   ...       0.06 
freq.     757.55  E(vib)   ...       0.06 
freq.     779.84  E(vib)   ...       0.05 
freq.     797.47  E(vib)   ...       0.05 
freq.     799.57  E(vib)   ...       0.05 
freq.     812.82  E(vib)   ...       0.05 
freq.     883.90  E(vib)   ...       0.04 
freq.     910.68  E(vib)   ...       0.03 
freq.     915.12  E(vib)   ...       0.03 
freq.     936.15  E(vib)   ...       0.03 
freq.     958.40  E(vib)   ...       0.03 
freq.     972.89  E(vib)   ...       0.03 
freq.    1000.54  E(vib)   ...       0.02 
freq.    1041.57  E(vib)   ...       0.02 
freq.    1045.91  E(vib)   ...       0.02 
freq.    1066.89  E(vib)   ...       0.02 
freq.    1075.07  E(vib)   ...       0.02 
freq.    1078.10  E(vib)   ...       0.02 
freq.    1107.13  E(vib)   ...       0.02 
freq.    1122.52  E(vib)   ...       0.01 
freq.    1155.14  E(vib)   ...       0.01 
freq.    1173.25  E(vib)   ...       0.01 
freq.    1188.72  E(vib)   ...       0.01 
freq.    1223.66  E(vib)   ...       0.01 
freq.    1234.15  E(vib)   ...       0.01 
freq.    1247.90  E(vib)   ...       0.01 
freq.    1271.81  E(vib)   ...       0.01 
freq.    1279.43  E(vib)   ...       0.01 
freq.    1288.24  E(vib)   ...       0.01 
freq.    1302.43  E(vib)   ...       0.01 
freq.    1338.73  E(vib)   ...       0.01 
freq.    1341.82  E(vib)   ...       0.01 
freq.    1351.18  E(vib)   ...       0.01 
freq.    1357.96  E(vib)   ...       0.01 
freq.    1366.67  E(vib)   ...       0.01 
freq.    1379.40  E(vib)   ...       0.01 
freq.    1394.37  E(vib)   ...       0.00 
freq.    1399.39  E(vib)   ...       0.00 
freq.    1426.70  E(vib)   ...       0.00 
freq.    1435.98  E(vib)   ...       0.00 
freq.    1444.45  E(vib)   ...       0.00 
freq.    1484.30  E(vib)   ...       0.00 
freq.    1486.57  E(vib)   ...       0.00 
freq.    1492.49  E(vib)   ...       0.00 
freq.    1502.77  E(vib)   ...       0.00 
freq.    1505.88  E(vib)   ...       0.00 
freq.    1714.21  E(vib)   ...       0.00 
freq.    1747.36  E(vib)   ...       0.00 
freq.    2991.65  E(vib)   ...       0.00 
freq.    2992.71  E(vib)   ...       0.00 
freq.    3001.10  E(vib)   ...       0.00 
freq.    3022.65  E(vib)   ...       0.00 
freq.    3027.47  E(vib)   ...       0.00 
freq.    3031.19  E(vib)   ...       0.00 
freq.    3035.23  E(vib)   ...       0.00 
freq.    3041.83  E(vib)   ...       0.00 
freq.    3043.99  E(vib)   ...       0.00 
freq.    3057.89  E(vib)   ...       0.00 
freq.    3086.54  E(vib)   ...       0.00 
freq.    3094.97  E(vib)   ...       0.00 
freq.    3098.70  E(vib)   ...       0.00 
freq.    3189.23  E(vib)   ...       0.00 
freq.    3424.00  E(vib)   ...       0.00 
freq.    3600.26  E(vib)   ...       0.00 

------------
INNER ENERGY
------------

The inner energy is: U= E(el) + E(ZPE) + E(vib) + E(rot) + E(trans)
    E(el)   - is the total energy from the electronic structure calculation
              = E(kin-el) + E(nuc-el) + E(el-el) + E(nuc-nuc)
    E(ZPE)  - the the zero temperature vibrational energy from the frequency calculation
    E(vib)  - the the finite temperature correction to E(ZPE) due to population
              of excited vibrational states
    E(rot)  - is the rotational thermal energy
    E(trans)- is the translational thermal energy

Summary of contributions to the inner energy U:
Electronic energy                ...  -1123.75123258 Eh
Zero point energy                ...      0.26544583 Eh     166.57 kcal/mol
Thermal vibrational correction   ...      0.01190080 Eh       7.47 kcal/mol
Thermal rotational correction    ...      0.00141627 Eh       0.89 kcal/mol
Thermal translational correction ...      0.00141627 Eh       0.89 kcal/mol
-----------------------------------------------------------------------
Total thermal energy                  -1123.47105341 Eh


Summary of corrections to the electronic energy:
(perhaps to be used in another calculation)
Total thermal correction                  0.01473334 Eh       9.25 kcal/mol
Non-thermal (ZPE) correction              0.26544583 Eh     166.57 kcal/mol
-----------------------------------------------------------------------
Total correction                          0.28017917 Eh     175.81 kcal/mol


--------
ENTHALPY
--------

The enthalpy is H = U + kB*T
                kB is Boltzmann's constant
Total thermal energy              ...  -1123.47105341 Eh 
Thermal Enthalpy correction       ...      0.00094421 Eh       0.59 kcal/mol
-----------------------------------------------------------------------
Total Enthalpy                    ...  -1123.47010920 Eh


Note: Only C1 symmetry has been detected, increase convergence thresholds 
      if your molecule has a higher symmetry. Symmetry factor of 1.0 is   
      used for the rotational entropy correction. 
 

Note: Rotational entropy computed according to Herzberg 
Infrared and Raman Spectra, Chapter V,1, Van Nostrand Reinhold, 1945 
Point Group:  C1, Symmetry Number:   1  
Rotational constants in cm-1:     0.023752     0.013570     0.009955 

Vibrational entropy computed according to the QRRHO of S. Grimme
Chem.Eur.J. 2012 18 9955 using a reference frequency of 100.0 cm-1


-------
ENTROPY
-------

The entropy contributions are T*S = T*(S(el)+S(vib)+S(rot)+S(trans))
     S(el)   - electronic entropy
     S(vib)  - vibrational entropy
     S(rot)  - rotational entropy
     S(trans)- translational entropy
The entropies will be listed as multiplied by the temperature to get
units of energy

Electronic entropy                ...      0.00000000 Eh      0.00 kcal/mol
Vibrational entropy               ...      0.02053723 Eh     12.89 kcal/mol
Rotational entropy                ...      0.01548258 Eh      9.72 kcal/mol
Translational entropy             ...      0.02013635 Eh     12.64 kcal/mol
-----------------------------------------------------------------------
Final entropy term                ...      0.05615616 Eh     35.24 kcal/mol

In case the symmetry of your molecule has not been determined correctly
or in case you have a reason to use a different symmetry number we print 
out the resulting rotational entropy values for sn=1,12:

 non-linear molecules -----------------------------------
|  sn= 1 | S(rot)=       0.01548258 Eh      9.72 kcal/mol|
|  sn= 2 | S(rot)=       0.01482813 Eh      9.30 kcal/mol|
|  sn= 3 | S(rot)=       0.01444530 Eh      9.06 kcal/mol|
|  sn= 4 | S(rot)=       0.01417367 Eh      8.89 kcal/mol|
|  sn= 5 | S(rot)=       0.01396298 Eh      8.76 kcal/mol|
|  sn= 6 | S(rot)=       0.01379084 Eh      8.65 kcal/mol|
|  sn= 7 | S(rot)=       0.01364529 Eh      8.56 kcal/mol|
|  sn= 8 | S(rot)=       0.01351922 Eh      8.48 kcal/mol|
|  sn= 9 | S(rot)=       0.01340801 Eh      8.41 kcal/mol|
|  sn=10 | S(rot)=       0.01330853 Eh      8.35 kcal/mol|
|  sn=11 | S(rot)=       0.01321854 Eh      8.29 kcal/mol|
|  sn=12 | S(rot)=       0.01313638 Eh      8.24 kcal/mol|
 linear molecules ---------------------------------------
|  Dinfh | S(rot)=       0.00967817 Eh      6.07 kcal/mol|
|  Cinfv | S(rot)=       0.01033263 Eh      6.48 kcal/mol|
 --------------------------------------------------------


-------------------
GIBBS FREE ENERGY
-------------------

The Gibbs free energy is G = H - T*S

Total enthalpy                    ...  -1123.47010920 Eh 
Total entropy correction          ...     -0.05615616 Eh    -35.24 kcal/mol
-----------------------------------------------------------------------
Final Gibbs free energy         ...  -1123.52626537 Eh

For completeness - the Gibbs free energy minus the electronic energy
G-E(el)                           ...      0.22496721 Eh    141.17 kcal/mol


Maximum memory used throughout the entire PROP-calculation: 102.7 MB

--------------------------------
SUGGESTED CITATIONS FOR THIS RUN
--------------------------------

Below you find a list of papers that are relevant to this ORCA run
We neither can nor want to force you to cite these papers, but we appreciate if you do
You receive ORCA, which is the product of decades of hard work by many enthusiastic individuals, for free
The only thing we kindly ask in return is that you cite our papers,
We deeply appreciate it, if you show your appreciation for ORCA by not just citing the generic ORCA reference.

Please note that relegating all ORCA citations to the supporting information does *not* help us.
SI sections are not indexed - citations you put there will not count into any citation statistics
But we need these citations in order to attract the funding resources that allow us to do what we are doing

Therefore, if you are a happy ORCA user, please consider citing a few of the papers listed below in the main body of your paper

In addition to the list printed below, the program has created the file m1_00_Vitamin_B7-QM3_001-B97-3C-TZ.bibtex that contains the list in bibtex format
You can import this file easily into all common literature databanks and citation aid programs


List of essential papers. We consider these as the minimum necessary citations

  1. Neese,F.
     Software update: the ORCA program system, version 5.0
     WIRES Comput. Molec. Sci., 2022 12(1)e1606
     doi.org/10.1002/wcms.1606

List of papers to cite with high priority. The work reported in these papers was absolutely
necessary for this run to complete.
Our perspective: the developers of density functionals and basis sets usually get cited in chemistry papers
Good! But without the algorithms to do something with them, the functionals or basis sets would not do anything.
Hence, in our opinion, the algorithm design and method developments papers are equally worthy of getting cited

  1. Neese,F.
     An improvement of the resolution of the identity approximation for the formation of the Coulomb matrix
     J. Comp. Chem., 2003 24(14)1740-1747
     doi.org/10.1002/jcc.10318
  2. Bykov,D.; Petrenko,T.; Izsak,R.; Kossmann,S.; Becker,U.; Valeev,E.; Neese,F.
     Efficient implementation of the analytic second derivatives of Hartree-Fock and hybrid DFT energies: a detailed analysis of different approximations
     Molec. Phys., 2015 113 1961-1977
     doi.org/10.1080/00268976.2015.1025114
  3. Neese,F.
     The SHARK Integral Generation and Digestion System
     J. Comp. Chem., 2022  1-16
     doi.org/10.1002/jcc.26942
  4. Grimme,S.; Antony,J.; Ehrlich,S.; Krieg,H.
     A consistent and accurate ab initio parametrization of density functional dispersion correction (DFT-D) for the 94 elements H-Pu
     J. Chem. Phys., 2010 132 154104
     doi.org/10.1063/1.3382344
  5. Grimme,S.; Ehrlich,S.; Goerigk,L.
     Effect of the damping function in dispersion corrected density functional theory
     J. Comput. Chem., 2011 32(7)1456-1465
     doi.org/10.1002/jcc.21759

List of suggested additional citations. These are papers that are important in the 'surrounding' of 
of this run, or papers that preceded the highly important papers. If you like your results we are grateful for a citation.

  1. Neese,F.
     The ORCA program system
     WIRES Comput. Molec. Sci., 2012 2(1)73-78
     doi.org/10.1002/wcms.81
  2. Neese,F.
     Software update: the ORCA program system, version 4.0
     WIRES Comput. Molec. Sci., 2018 8(1)1-6
     doi.org/10.1002/wcms.1327
  3. Neese,F.; Wennmohs,F.; Becker,U.; Riplinger,C.
     The ORCA quantum chemistry program package
     J. Chem. Phys., 2020 152 Art. No. L224108
     doi.org/10.1063/5.0004608

List of optional additional citations

  1. Neese,F.
     Approximate second-order SCF convergence for spin unrestricted wavefunctions
     Chem. Phys. Lett., 2000 325(1-3)93-98
     doi.org/10.1016/s0009-2614(00)00662-x

Timings for individual modules:

Sum of individual times          ...      419.754 sec (=   6.996 min)
Startup calculation              ...       51.954 sec (=   0.866 min)  12.4 %
SCF iterations                   ...      112.193 sec (=   1.870 min)  26.7 %
Property integrals               ...       81.288 sec (=   1.355 min)  19.4 %
SCF Response                     ...       71.010 sec (=   1.184 min)  16.9 %
Property calculations            ...       33.364 sec (=   0.556 min)   7.9 %
SCF Gradient evaluation          ...       69.811 sec (=   1.164 min)  16.6 %
Geometry relaxation              ...        0.135 sec (=   0.002 min)   0.0 %
                             ****ORCA TERMINATED NORMALLY****
TOTAL RUN TIME: 0 days 0 hours 7 minutes 3 seconds 284 msec
