
                                 *****************
                                 * O   R   C   A *
                                 *****************

                                            #,                                       
                                            ###                                      
                                            ####                                     
                                            #####                                    
                                            ######                                   
                                           ########,                                 
                                     ,,################,,,,,                         
                               ,,#################################,,                 
                          ,,##########################################,,             
                       ,#########################################, ''#####,          
                    ,#############################################,,   '####,        
                  ,##################################################,,,,####,       
                ,###########''''           ''''###############################       
              ,#####''   ,,,,##########,,,,          '''####'''          '####       
            ,##' ,,,,###########################,,,                        '##       
           ' ,,###''''                  '''############,,,                           
         ,,##''                                '''############,,,,        ,,,,,,###''
      ,#''                                            '''#######################'''  
     '                                                          ''''####''''         
             ,#######,   #######,   ,#######,      ##                                
            ,#'     '#,  ##    ##  ,#'     '#,    #''#        ,####,   ,####,        
            ##       ##  ##   ,#'  ##            #'  '#       #'       #'  '#        
            ##       ##  #######   ##           ,######,      #####,   #    #        
            '#,     ,#'  ##    ##  '#,     ,#' ,#      #,     #,   #   #,  ,#        
             '#######'   ##     ##  '#######'  #'      '#     '####' # '####'        



                #########################################################
                #                        -***-                          #
                #          Department of theory and spectroscopy        #
                #                                                       #
                #                      Frank Neese                      #
                #                                                       #
                #     Directorship, Architecture, Infrastructure        #
                #                    SHARK, DRIVERS                     #
                #        Core code/Algorithms in most modules           #
                #                                                       #
                #        Max Planck Institute fuer Kohlenforschung      #
                #                Kaiser Wilhelm Platz 1                 #
                #                 D-45470 Muelheim/Ruhr                 #
                #                      Germany                          #
                #                                                       #
                #                  All rights reserved                  #
                #                        -***-                          #
                #########################################################


                         Program Version 6.0.1  -  RELEASE   -


 With contributions from (in alphabetic order):
[Max-Planck-Institut fuer Kohlenforschung]                               
  Daniel Aravena         : Magnetic Suceptibility                        
  Michael Atanasov       : Ab Initio Ligand Field Theory (pilot matlab implementation)
  Alexander A. Auer      : GIAO ZORA, VPT2 properties, NMR spectrum      
  Ute Becker             : All parallelization in ORCA, NUMFREQ, NUMCALC 
  Giovanni Bistoni       : ED, misc. LED, open-shell LED, HFLD           
  Martin Brehm           : Molecular dynamics                            
  Dmytro Bykov           : pre 5.0 version of the SCF Hessian            
  Marcos Casanova-Páez   : Triplet and SCS-CIS(D). UHF-(DLPNO)-IP/EA/STEOM-CCSD. UHF-CVS-IP/STEOM-CCSD   
  Vijay G. Chilkuri      : MRCI spin determinant printing, contributions to CSF-ICE 
  Pauline Colinet        : FMM embedding                                 
  Dipayan Datta          : RHF DLPNO-CCSD density                        
  Achintya Kumar Dutta   : EOM-CC, STEOM-CC                              
  Nicolas Foglia         : Exact transition moments, OPA infrastructure, MCD improvements    
  Dmitry Ganyushin       : Spin-Orbit,Spin-Spin,Magnetic field MRCI      
  Miquel Garcia-Rates    : C-PCM and meta-GGA Hessian, CCSD/C-PCM, Gaussian charge scheme 
  Tiago L. C. Gouveia    : GS-ROHF, GS-ROCIS                             
  Yang Guo               : DLPNO-NEVPT2, F12-NEVPT2, CIM, IAO-localization        
  Andreas Hansen         : Spin unrestricted coupled pair/coupled cluster methods 
  Ingolf Harden          : AUTO-CI MPn and infrastructure                
  Benjamin Helmich-Paris : MC-RPA, TRAH-(SCF,CASSCF), AVAS, COSX integrals, SCF dyn. polar. 
  Lee Huntington         : MR-EOM, pCC                                   
  Robert Izsak           : Overlap fitted RIJCOSX, COSX-SCS-MP3, EOM     
  Riya Kayal             : Wick's Theorem for AUTO-CI, AUTO-CI UHF-CCSDT 
  Emily Kempfer          : AUTO-CI, RHF CISDT and CCSDT                  
  Christian Kollmar      : KDIIS, OOCD, Brueckner-CCSD(T), CCSD density, CASPT2, CASPT2-K, improved NEVPT2 
  Axel Koslowski         : Symmetry handling                             
  Simone Kossmann        : meta-GGA functionals, TD-DFT gradient, OOMP2, (MP2 Hessian; deprecated post 5.0) 
  Lucas Lang             : DCDCAS                                        
  Marvin Lechner         : AUTO-CI (C++ implementation), FIC-MRCC        
  Spencer Leger          : CASSCF response                               
  Dagmar Lenk            : GEPOL surface, SMD, ORCA-2-JSON               
  Dimitrios Liakos       : Extrapolation schemes; Compound Job, initial MDCI parallelization 
  Dimitrios Manganas     : Further ROCIS development; embedding schemes. LFT, Crystal Embedding 
  Dimitrios Pantazis     : SARC Basis sets                               
  Anastasios Papadopoulos: AUTO-CI, single reference methods and gradients 
  Taras Petrenko         : pre 6.0 DFT Hessian and TD-DFT gradient, (ASA, deprecated), ECA, 1-Electron XAS/XES, NRVS 
  Peter Pinski           : DLPNO-MP2, DLPNO-MP2 Gradient                 
  Christoph Reimann      : Effective Core Potentials                     
  Marius Retegan         : Local ZFS, SOC                                
  Christoph Riplinger    : Optimizer, TS searches, QM/MM, DLPNO-CCSD(T), (RO)-DLPNO pert. Triples 
  Michael Roemelt        : Original ROCIS implementation                 
  Masaaki Saitow         : Open-shell DLPNO-CCSD energy and density      
  Barbara Sandhoefer     : DKH picture change effects                    
  Kantharuban Sivalingam : CASSCF convergence/infrastructure, NEVPT2 and variants, FIC-MRCI 
  Bernardo de Souza      : ESD, SOC TD-DFT                               
  Georgi L. Stoychev     : AutoAux, RI-MP2 NMR, DLPNO-MP2 response, X2C  
  Van Anh Tran           : RI-MP2 g-tensors                              
  Willem Van den Heuvel  : Paramagnetic NMR                              
  Zikuan Wang            : NOTCH, Electric field optimization            
  Frank Wennmohs         : Technical directorship and infrastructure     
  Hang Xu                : AUTO-CI-Response properties                   
                                                                         
[FACCTs GmbH]                                                            
  Markus Bursch, Miquel Garcia-Rates, Christoph Riplinger, Bernardo de Souza, Georgi L. Stoychev 
                                                                 
  APM, Basis sets (HGBS, AHGBS, def-TZVP (Ac-Lr), def2-XVPD (La-Lu)), CI-OPT, improved COSX, DLPNO-Multilevel,           
  DOCKER, DRACO, updates on ESD, GOAT, IRC, LR-CPCM, MBIS, meta-GGA TD-DFT gradient, ML-optimized integration grids, 
  MM, NACMEs, nearIR, NEB, NEB-TS, NL-DFT gradient (VV10), 2- and 3-layer-ONIOM, interface openCOSMO-RS, QMMM,   
  Crystal-QMMM, SF, symmetry and pop. for TD-DFT, r2SCAN hybrids, SOLVATOR                                   
                                                                         
[Other institutions]                                                     
  V. Asgeirsson          : NEB                                           
  Christoph Bannwarth    : sTDA-DFT, sTD-DFT, PBEh-3c, B97-3c, D3        
  Sebastian Ehlert       : rSCAN, r2SCAN, r2SCAN-3c, D4, dhf basis sets  
  Marvin Friede          : D4 for Fr, Ra, Ac-Lr                          
  Lars Goerigk           : TD-DFT with DH, B97 family of functionals     
  Stefan Grimme          : VdW corrections, initial TS optimization, DFT functionals, gCP, sTDA/sTD-DF 
  Waldemar Hujo          : DFT-NL                                        
  H. Jonsson             : NEB                                           
  Holger Kruse           : gCP                                           
  Marcel Mueller         : wB97X-3c, vDZP basis set                      
  Hagen Neugebauer       : wr2SCAN                                       
  Tobias Risthaus        : range-separated hybrid DFT                    
  Lukas Wittmann         : regularized MP2, r2SCAN double-hybrids, wr2SCAN        
                                                                         
We gratefully acknowledge several colleagues who have allowed us to      
interface, adapt or use parts of their codes:                            
  Ed Valeev, F. Pavosevic, A. Kumar             : LibInt (2-el integral package), F12 methods 
  Garnet Chan, S. Sharma, J. Yang, R. Olivares  : DMRG                   
  Ulf Ekstrom                                   : XCFun DFT Library      
  Mihaly Kallay                                 : mrcc  (arbitrary order and MRCC methods)
  Frank Weinhold                                : gennbo (NPA and NBO analysis)           
  Simon Mueller                                 : openCOSMO-RS                            
  Christopher J. Cramer and Donald G. Truhlar   : smd solvation model                     
  S Lehtola, MJT Oliveira, MAL Marques          : LibXC Library                           
  Liviu Ungur et al                             : ANISO software                          


 Your calculation uses the libint2 library for the computation of 2-el integrals
 For citations please refer to: http://libint.valeyev.net

 Your ORCA version has been built with support for libXC version: 6.2.2
 For citations please refer to: https://libxc.gitlab.io

 This ORCA versions uses:
   CBLAS   interface :  Fast vector & matrix operations
   LAPACKE interface :  Fast linear algebra routines
   SCALAPACK package :  Parallel linear algebra routines
   Shared memory     :  Shared parallel matrices
   BLAS/LAPACK       :  OpenBLAS 0.3.27  USE64BITINT DYNAMIC_ARCH NO_AFFINITY Zen SINGLE_THREADED
        Core in use  :  Zen
   Copyright (c) 2011-2014, The OpenBLAS Project


NOTE: MaxCore=6000 MB was set to SCF,MP2,MDCI,CIPSI,MRCI and CIS
      => If you want to overwrite this, your respective input block should be placed after the MaxCore statement
Your calculation utilizes the atom-pairwise dispersion correction
with the Becke-Johnson damping scheme (D3BJ)


Your calculation employs the composite approach B97-3c by Grimme and coworkers.
For the correct reference, please check the publication list of the Grimme group:
http://www.thch.uni-bonn.de/tc/index.php?section=publikationen&subsection=grimme#2017
   

XCFun DFT library Copyright 2009-2010 Ulf Ekstrom and contributors.
See http://admol.org/xcfun for more information.
This is free software; see the source code for copying conditions.
There is ABSOLUTELY NO WARRANTY; not even for MERCHANTABILITY or FITNESS FOR A PARTICULAR PURPOSE.
For details see the documentation.
Scientific users of this library should cite U. Ekstrom, L. Visscher, R. Bast, A. J. Thorvaldsen and K. Ruud;
J.Chem.Theor.Comp. 2010, DOI: 10.1021/ct100117s
XCFun Version 0.99 

================================================================================

----- Orbital basis set information -----
Your calculation utilizes the basis: def2-mTZVP
----- AuxJ basis set information -----
Your calculation utilizes the basis: def2-mTZVP/J
================================================================================
                                        WARNINGS
                       Please study these warnings very carefully!
================================================================================


WARNING: Geometry Optimization
  ===> : Switching off AutoStart
         For restart on a previous wavefunction, please use MOREAD

================================================================================
                                       INPUT FILE
================================================================================
NAME = m1_00_Vitamin_B7-QM3_000-B97-3C-TZ.inp
|  1> %pal nprocs 16 end
|  2> %MaxCore 6000
|  3> # put your comments here
|  4> ! B97-3C  OPT  FREQ DEFGRID3 NOTRAH
|  5> %scf MaxIter 800 end
|  6> %output
|  7> Print [P_Hirshfeld] 1
|  8> end
|  9> %geom
| 10> MaxIter 3000
| 11>  TolE 1e-6 #TolE 5e-6 Energy change (a.u.)
| 12>  TolRMSG 3e-5 #TolRMSG 1e-4 RMS gradient (a.u.)
| 13>  TolMaxG 1e-4 #TolMaxG 3e-3 Max. element of gradient (a.u.)
| 14>  TolRMSD 2e-3 #TolRMSD 2e-3 RMS displacement (a.u.)
| 15>  TolMaxD 4e-3 #TolMaxD 4e-3 Max. displacement (a.u.)
| 16> end
| 17> * xyz 0 1
| 18>  S      -2.59730058       1.42887490       0.72691946
| 19>  O       0.52971588      -3.00915850      -0.17187507
| 20>  O       2.49993107      -1.25629439      -0.19338416
| 21>  O       1.67748460      -0.37821415      -2.07688951
| 22>  N      -0.67101586      -1.35358907      -1.23150519
| 23>  N      -1.46072065      -2.15924653       0.66153178
| 24>  C      -1.67517588      -0.42577159      -0.81727233
| 25>  C      -2.44536347      -1.19980611       0.23548828
| 26>  C      -1.14124683       0.83517041      -0.16851514
| 27>  C      -2.90964528      -0.24983344       1.32767250
| 28>  C       0.03493092       0.62225980       0.75237211
| 29>  C       0.97406411       1.81117254       0.85480070
| 30>  C      -0.43527123      -2.27326928      -0.24939692
| 31>  C       1.83991799       2.06411297      -0.37355069
| 32>  C       2.93050591       1.02579891      -0.61598378
| 33>  C       2.32582376      -0.27980786      -1.05756500
| 34>  H      -2.30993335      -0.13484381      -1.66027084
| 35>  H      -3.31095888      -1.70911598      -0.20611048
| 36>  H      -0.89118352       1.56993564      -0.93199853
| 37>  H      -3.97011171      -0.35619594       1.55806371
| 38>  H      -2.34840366      -0.43671793       2.23852752
| 39>  H      -0.32411951       0.36739819       1.74530664
| 40>  H       0.60482538      -0.23098569       0.43365590
| 41>  H       0.09482741      -1.10374829      -1.84902265
| 42>  H      -1.62602806      -2.89823823       1.32111594
| 43>  H       0.38882537       2.71255980       1.06618794
| 44>  H       1.62938233       1.65478873       1.71843097
| 45>  H       1.22312642       2.12492550      -1.27158255
| 46>  H       2.32588064       3.04114102      -0.25869496
| 47>  H       3.53042830       0.85684955       0.27797938
| 48>  H       3.59152212       1.37184021      -1.41677328
| 49>  H       1.91528625      -2.03199138      -0.36766174
| 50> *
| 51> 
| 52> 
| 53> 
| 54> 
| 55>                          ****END OF INPUT****
================================================================================

                       *****************************
                       * Geometry Optimization Run *
                       *****************************

Geometry optimization settings:
Update method            Update   .... BFGS
Choice of coordinates    CoordSys .... (2022) Redundant Internals
Initial Hessian          InHess   .... Almloef's Model
Max. no of cycles        MaxIter  .... 3000

Convergence Tolerances:
Energy Change            TolE     ....  1.0000e-06 Eh
Max. Gradient            TolMAXG  ....  1.0000e-04 Eh/bohr
RMS Gradient             TolRMSG  ....  3.0000e-05 Eh/bohr
Max. Displacement        TolMAXD  ....  4.0000e-03 bohr
RMS Displacement         TolRMSD  ....  2.0000e-03 bohr
Strict Convergence                .... False

------------------------------------------------------------------------------
                        ORCA OPTIMIZATION COORDINATE SETUP
------------------------------------------------------------------------------

The optimization will be done in redundant internal coordinates (2022)
Making redundant internal coordinates   ...  (2022 redundants) done
Evaluating the initial hessian          ...  (Almloef) done
Evaluating the coordinates              ...  done
Calculating the B-matrix                .... done
Calculating the G-matrix                .... done
Diagonalizing the G-matrix              .... done
Small eigenvalue found = 8.286e-03
Small eigenvalue found = 1.741e-02
The first mode is                       ....   81
The number of degrees of freedom        ....   90

    -----------------------------------------------------------------
                    Redundant Internal Coordinates


    -----------------------------------------------------------------
         Definition                    Initial Value    Approx d2E/dq
    -----------------------------------------------------------------
      1. B(C   6,N   4)                  1.4286         0.485693   
      2. B(C   7,C   6)                  1.5168         0.392164   
      3. B(C   7,N   5)                  1.4393         0.466911   
      4. B(C   8,C   6)                  1.5152         0.394396   
      5. B(C   8,S   0)                  1.8095         0.360729   
      6. B(C   9,C   7)                  1.5202         0.387333   
      7. B(C   9,S   0)                  1.8101         0.359945   
      8. B(C  10,C   8)                  1.5089         0.403694   
      9. B(C  11,C  10)                  1.5185         0.389632   
     10. B(C  12,N   5)                  1.3763         0.588374   
     11. B(C  12,N   4)                  1.3660         0.611202   
     12. B(C  12,O   1)                  1.2160         1.060290   
     13. B(C  13,C  11)                  1.5240         0.381922   
     14. B(C  14,C  13)                  1.5252         0.380213   
     15. B(C  15,O   2)                  1.3155         0.735648   
     16. B(C  15,C  14)                  1.5051         0.409400   
     17. B(C  15,O   3)                  1.2120         1.075953   
     18. B(H  16,C   6)                  1.0946         0.354034   
     19. B(H  17,C   7)                  1.0971         0.350810   
     20. B(H  18,C   8)                  1.0887         0.361793   
     21. B(H  19,C   9)                  1.0904         0.359565   
     22. B(H  20,C   9)                  1.0861         0.365320   
     23. B(H  21,C  10)                  1.0862         0.365187   
     24. B(H  22,C  10)                  1.0744         0.381306   
     25. B(H  23,N   4)                  1.0150         0.424802   
     26. B(H  23,O   3)                  1.7559         0.027937   
     27. B(H  24,N   5)                  1.0042         0.441971   
     28. B(H  25,C  11)                  1.0953         0.353153   
     29. B(H  26,C  11)                  1.0953         0.353113   
     30. B(H  27,C  13)                  1.0911         0.358592   
     31. B(H  28,C  13)                  1.0972         0.350649   
     32. B(H  29,C  14)                  1.0898         0.360391   
     33. B(H  30,C  14)                  1.0945         0.354184   
     34. B(H  31,O   3)                  2.3902         0.002718   
     35. B(H  31,O   1)                  1.7067         0.033464   
     36. B(H  31,O   2)                  0.9869         0.471104   
     37. A(C   8,S   0,C   9)           89.9312         0.398134   
     38. A(C  15,O   2,H  31)          112.8942         0.374759   
     39. A(C   6,N   4,C  12)          110.4940         0.409127   
     40. A(C   6,N   4,H  23)          123.1549         0.343109   
     41. A(C  12,N   4,H  23)          118.2237         0.356678   
     42. A(C   7,N   5,C  12)          111.6548         0.403560   
     43. A(C   7,N   5,H  24)          124.9140         0.343119   
     44. A(C  12,N   5,H  24)          119.7609         0.356772   
     45. A(C   8,C   6,H  16)          108.2338         0.326311   
     46. A(N   4,C   6,H  16)          110.9112         0.335716   
     47. A(C   7,C   6,C   8)          107.8440         0.369810   
     48. A(N   4,C   6,C   7)          103.1056         0.380939   
     49. A(C   7,C   6,H  16)          112.0678         0.326007   
     50. A(N   4,C   6,C   8)          114.6416         0.381314   
     51. A(C   6,C   7,H  17)          110.9868         0.325516   
     52. A(N   5,C   7,C   9)          114.3835         0.377533   
     53. A(N   5,C   7,C   6)          101.4348         0.378344   
     54. A(N   5,C   7,H  17)          110.4531         0.333018   
     55. A(C   9,C   7,H  17)          109.7750         0.324854   
     56. A(C   6,C   7,C   9)          109.5635         0.368664   
     57. A(C   6,C   8,H  18)          110.0176         0.327478   
     58. A(S   0,C   8,C   6)          101.6169         0.383894   
     59. A(C   6,C   8,C  10)          114.7435         0.371657   
     60. A(S   0,C   8,C  10)          111.8094         0.385453   
     61. A(S   0,C   8,H  18)          108.0837         0.339118   
     62. A(C  10,C   8,H  18)          110.1316         0.328739   
     63. A(S   0,C   9,C   7)          106.7622         0.382545   
     64. A(H  19,C   9,H  20)          107.9740         0.291430   
     65. A(C   7,C   9,H  20)          109.7060         0.327027   
     66. A(S   0,C   9,H  20)          110.4109         0.339544   
     67. A(C   7,C   9,H  19)          112.8226         0.326173   
     68. A(S   0,C   9,H  19)          109.1719         0.338645   
     69. A(C   8,C  10,C  11)          114.3787         0.370881   
     70. A(H  21,C  10,H  22)          105.0803         0.294121   
     71. A(C  11,C  10,H  22)          108.2843         0.329668   
     72. A(C   8,C  10,H  22)          110.1498         0.331607   
     73. A(C  11,C  10,H  21)          109.0552         0.327326   
     74. A(C   8,C  10,H  21)          109.4722         0.329247   
     75. A(C  13,C  11,H  26)          108.6202         0.324452   
     76. A(C  10,C  11,H  26)          108.1440         0.325520   
     77. A(C  13,C  11,H  25)          108.8166         0.324458   
     78. A(H  25,C  11,H  26)          106.5588         0.289062   
     79. A(C  10,C  11,H  25)          109.0802         0.325526   
     80. A(C  10,C  11,C  13)          115.2740         0.367366   
     81. A(O   1,C  12,N   4)          126.1726         0.471001   
     82. A(N   4,C  12,N   5)          106.9471         0.423329   
     83. A(O   1,C  12,N   5)          126.8110         0.467724   
     84. A(H  27,C  13,H  28)          106.6713         0.289438   
     85. A(C  11,C  13,H  28)          108.3638         0.324079   
     86. A(C  14,C  13,H  27)          108.1385         0.325035   
     87. A(C  11,C  13,H  27)          110.5764         0.325274   
     88. A(C  14,C  13,H  28)          107.8265         0.323841   
     89. A(C  11,C  13,C  14)          114.9217         0.365829   
     90. A(H  29,C  14,H  30)          108.4650         0.290121   
     91. A(C  15,C  14,H  30)          107.5922         0.328348   
     92. A(C  13,C  14,H  30)          109.4452         0.324375   
     93. A(C  15,C  14,H  29)          109.1087         0.329291   
     94. A(C  13,C  14,H  29)          111.6404         0.325302   
     95. A(C  13,C  14,C  15)          110.4816         0.370216   
     96. A(O   3,C  15,C  14)          122.1463         0.441942   
     97. A(O   2,C  15,C  14)          113.4528         0.412840   
     98. A(O   2,C  15,O   3)          124.2622         0.488690   
     99. D(H  16,C   6,N   4,C  12)   -143.9841         0.020191   
    100. D(C   7,C   6,N   4,C  12)    -23.8581         0.020191   
    101. D(C   8,C   6,N   4,H  23)    -54.8358         0.020191   
    102. D(C   8,C   6,N   4,C  12)     93.0741         0.020191   
    103. D(C   7,C   6,N   4,H  23)   -171.7680         0.020191   
    104. D(C   6,C   7,N   5,H  24)   -175.7404         0.018621   
    105. D(C   6,C   7,N   5,C  12)    -17.5506         0.018621   
    106. D(N   5,C   7,C   6,H  16)    143.2020         0.012221   
    107. D(N   5,C   7,C   6,N   4)     23.8734         0.012221   
    108. D(C   9,C   7,C   6,H  16)    -95.5404         0.012221   
    109. D(C   9,C   7,N   5,C  12)   -135.3756         0.018621   
    110. D(N   5,C   7,C   6,C   8)    -97.7726         0.012221   
    111. D(C   9,C   7,C   6,C   8)     23.4850         0.012221   
    112. D(C   9,C   7,C   6,N   4)    145.1310         0.012221   
    113. D(H  17,C   7,N   5,C  12)    100.1873         0.018621   
    114. D(C   9,C   7,N   5,H  24)     66.4347         0.018621   
    115. D(C  10,C   8,C   6,H  16)   -163.8554         0.012355   
    116. D(C  10,C   8,C   6,C   7)     74.7046         0.012355   
    117. D(S   0,C   8,C   6,H  16)     75.3224         0.012355   
    118. D(S   0,C   8,C   6,C   7)    -46.1176         0.012355   
    119. D(C  10,C   8,C   6,N   4)    -39.4837         0.012355   
    120. D(H  18,C   8,S   0,C   9)    160.9676         0.003583   
    121. D(S   0,C   8,C   6,N   4)   -160.3059         0.012355   
    122. D(C   6,C   8,S   0,C   9)     45.1980         0.003583   
    123. D(C  10,C   8,S   0,C   9)    -77.6572         0.003583   
    124. D(S   0,C   9,C   7,C   6)     10.2583         0.011935   
    125. D(S   0,C   9,C   7,N   5)    123.3423         0.011935   
    126. D(H  20,C   9,S   0,C   8)     86.5227         0.003573   
    127. D(C   7,C   9,S   0,C   8)    -32.6753         0.003573   
    128. D(S   0,C   9,C   7,H  17)   -111.8607         0.011935   
    129. D(H  19,C   9,S   0,C   8)   -154.9244         0.003573   
    130. D(H  19,C   9,C   7,H  17)      8.0640         0.011935   
    131. D(H  19,C   9,C   7,C   6)    130.1830         0.011935   
    132. D(H  19,C   9,C   7,N   5)   -116.7330         0.011935   
    133. D(H  21,C  10,C   8,H  18)    149.2326         0.012922   
    134. D(H  21,C  10,C   8,C   6)    -85.9906         0.012922   
    135. D(H  21,C  10,C   8,S   0)     29.0486         0.012922   
    136. D(C  11,C  10,C   8,H  18)     26.5209         0.012922   
    137. D(C  11,C  10,C   8,C   6)    151.2977         0.012922   
    138. D(C  11,C  10,C   8,S   0)    -93.6632         0.012922   
    139. D(H  25,C  11,C  10,H  22)    173.5401         0.012070   
    140. D(H  25,C  11,C  10,H  21)    -72.6303         0.012070   
    141. D(H  25,C  11,C  10,C   8)     50.3074         0.012070   
    142. D(C  13,C  11,C  10,H  22)     50.8069         0.012070   
    143. D(C  13,C  11,C  10,H  21)    164.6364         0.012070   
    144. D(C  13,C  11,C  10,C   8)    -72.4259         0.012070   
    145. D(N   4,C  12,N   5,H  24)    163.1058         0.027819   
    146. D(N   4,C  12,N   5,C   7)      3.6514         0.027819   
    147. D(O   1,C  12,N   5,H  24)    -19.7873         0.027819   
    148. D(O   1,C  12,N   5,C   7)   -179.2417         0.027819   
    149. D(N   5,C  12,N   4,H  23)    163.1267         0.030183   
    150. D(N   5,C  12,N   4,C   6)     13.4432         0.030183   
    151. D(O   1,C  12,N   4,H  23)    -14.0039         0.030183   
    152. D(O   1,C  12,N   4,C   6)   -163.6875         0.030183   
    153. D(H  27,C  13,C  11,H  26)    174.3258         0.011619   
    154. D(H  27,C  13,C  11,H  25)    -70.0459         0.011619   
    155. D(H  27,C  13,C  11,C  10)     52.8277         0.011619   
    156. D(C  14,C  13,C  11,H  26)     51.5671         0.011619   
    157. D(C  14,C  13,C  11,H  25)    167.1954         0.011619   
    158. D(C  14,C  13,C  11,C  10)    -69.9310         0.011619   
    159. D(C  15,C  14,C  13,H  28)   -168.5193         0.011521   
    160. D(C  15,C  14,C  13,H  27)    -53.5297         0.011521   
    161. D(C  15,C  14,C  13,C  11)     70.5276         0.011521   
    162. D(H  29,C  14,C  13,H  28)     69.8702         0.011521   
    163. D(H  29,C  14,C  13,H  27)   -175.1402         0.011521   
    164. D(H  29,C  14,C  13,C  11)    -51.0829         0.011521   
    165. D(O   3,C  15,C  14,H  29)   -175.5078         0.012415   
    166. D(O   3,C  15,C  14,C  13)     61.3973         0.012415   
    167. D(O   2,C  15,C  14,H  30)    126.0864         0.012415   
    168. D(O   2,C  15,C  14,H  29)      8.6032         0.012415   
    169. D(O   2,C  15,C  14,C  13)   -114.4918         0.012415   
    170. D(C  14,C  15,O   2,H  31)    165.1394         0.040933   
    171. D(O   3,C  15,O   2,H  31)    -10.6488         0.040933   
    -----------------------------------------------------------------

Number of atoms                         .... 32
Number of degrees of freedom            .... 171


         *************************************************************
         *                GEOMETRY OPTIMIZATION CYCLE   1            *
         *************************************************************
---------------------------------
CARTESIAN COORDINATES (ANGSTROEM)
---------------------------------
  S     -2.597301    1.428875    0.726919
  O      0.529716   -3.009158   -0.171875
  O      2.499931   -1.256294   -0.193384
  O      1.677485   -0.378214   -2.076890
  N     -0.671016   -1.353589   -1.231505
  N     -1.460721   -2.159247    0.661532
  C     -1.675176   -0.425772   -0.817272
  C     -2.445363   -1.199806    0.235488
  C     -1.141247    0.835170   -0.168515
  C     -2.909645   -0.249833    1.327673
  C      0.034931    0.622260    0.752372
  C      0.974064    1.811173    0.854801
  C     -0.435271   -2.273269   -0.249397
  C      1.839918    2.064113   -0.373551
  C      2.930506    1.025799   -0.615984
  C      2.325824   -0.279808   -1.057565
  H     -2.309933   -0.134844   -1.660271
  H     -3.310959   -1.709116   -0.206110
  H     -0.891184    1.569936   -0.931999
  H     -3.970112   -0.356196    1.558064
  H     -2.348404   -0.436718    2.238528
  H     -0.324120    0.367398    1.745307
  H      0.604825   -0.230986    0.433656
  H      0.094827   -1.103748   -1.849023
  H     -1.626028   -2.898238    1.321116
  H      0.388825    2.712560    1.066188
  H      1.629382    1.654789    1.718431
  H      1.223126    2.124925   -1.271583
  H      2.325881    3.041141   -0.258695
  H      3.530428    0.856850    0.277979
  H      3.591522    1.371840   -1.416773
  H      1.915286   -2.031991   -0.367662

----------------------------
CARTESIAN COORDINATES (A.U.)
----------------------------
  NO LB      ZA    FRAG     MASS         X           Y           Z
   0 S    16.0000    0    32.060   -4.908187    2.700182    1.373679
   1 O     8.0000    0    15.999    1.001018   -5.686485   -0.324797
   2 O     8.0000    0    15.999    4.724185   -2.374052   -0.365443
   3 O     8.0000    0    15.999    3.169986   -0.714721   -3.924752
   4 N     7.0000    0    14.007   -1.268036   -2.557913   -2.327208
   5 N     7.0000    0    14.007   -2.760362   -4.080385    1.250114
   6 C     6.0000    0    12.011   -3.165624   -0.804592   -1.544421
   7 C     6.0000    0    12.011   -4.621067   -2.267305    0.445008
   8 C     6.0000    0    12.011   -2.156644    1.578243   -0.318447
   9 C     6.0000    0    12.011   -5.498433   -0.472117    2.508937
  10 C     6.0000    0    12.011    0.066010    1.175901    1.421777
  11 C     6.0000    0    12.011    1.840714    3.422620    1.615339
  12 C     6.0000    0    12.011   -0.822543   -4.295856   -0.471292
  13 C     6.0000    0    12.011    3.476941    3.900608   -0.705909
  14 C     6.0000    0    12.011    5.537854    1.938479   -1.164041
  15 C     6.0000    0    12.011    4.395170   -0.528760   -1.998508
  16 H     1.0000    0     1.008   -4.365141   -0.254818   -3.137457
  17 H     1.0000    0     1.008   -6.256806   -3.229761   -0.389492
  18 H     1.0000    0     1.008   -1.684093    2.966748   -1.761222
  19 H     1.0000    0     1.008   -7.502424   -0.673113    2.944314
  20 H     1.0000    0     1.008   -4.437840   -0.825277    4.230204
  21 H     1.0000    0     1.008   -0.612497    0.694282    3.298152
  22 H     1.0000    0     1.008    1.142954   -0.436500    0.819491
  23 H     1.0000    0     1.008    0.179198   -2.085782   -3.494146
  24 H     1.0000    0     1.008   -3.072748   -5.476877    2.496547
  25 H     1.0000    0     1.008    0.734773    5.125995    2.014803
  26 H     1.0000    0     1.008    3.079086    3.127098    3.247364
  27 H     1.0000    0     1.008    2.311374    4.015527   -2.402943
  28 H     1.0000    0     1.008    4.395277    5.746924   -0.488863
  29 H     1.0000    0     1.008    6.671543    1.619211    0.525305
  30 H     1.0000    0     1.008    6.786993    2.592402   -2.677313
  31 H     1.0000    0     1.008    3.619366   -3.839907   -0.694780

--------------------------------
INTERNAL COORDINATES (ANGSTROEM)
--------------------------------
 S      0   0   0     0.000000000000     0.00000000     0.00000000
 O      1   0   0     5.502926858299     0.00000000     0.00000000
 O      2   1   0     2.637184696601    83.67397489     0.00000000
 O      3   2   1     2.234957607511    89.60407143   293.04624815
 N      2   1   3     2.303363375633    36.79752378   270.36636351
 N      5   2   1     2.203702921900    61.89111191   323.80339550
 C      5   2   1     1.428555733692   134.41533521   343.47355955
 C      6   5   2     1.439291654391    75.35495289   182.12152824
 C      7   5   2     1.515236235501   114.64161378    83.42678686
 C      8   6   5     1.520155269458   114.38347908   226.86123280
 C      9   7   5     1.508893089208   114.74353360   320.51626848
 C     11   9   7     1.518544127756   114.37874545   151.29766461
 C      2   1   3     1.216035650713    21.78719131   217.56317043
 C     12  11   9     1.523984560274   115.27399266   287.57411538
 C     14  12  11     1.525205527649   114.92174006   290.06900952
 C      4   3   2     1.212043695989    29.10927561   154.94717251
 H      7   5   2     1.094624367881   110.91120484   206.36856417
 H      8   6   5     1.097115045164   110.45308252   102.42404860
 H      9   7   5     1.088723329883   110.01758151    85.35297103
 H     10   8   6     1.090404576388   112.82263843   243.26702699
 H     10   8   6     1.086082333933   109.70601317     3.68806314
 H     11   9   7     1.086181675596   109.47217315   274.00943101
 H     11   9   7     1.074424303644   110.14977361    29.07680858
 H      5   2   1     1.015019282063    93.63916453   129.52408451
 H      6   5   2     1.004234303633   153.15482161   324.65167748
 H     12  11   9     1.095302670736   109.08015335    50.30735670
 H     12  11   9     1.095333332258   108.14396419   165.81903328
 H     14  12  11     1.091142165899   110.57635095    52.82767473
 H     14  12  11     1.097239876415   108.36383581   169.41035638
 H     15  14  12     1.089780203392   111.64042654   308.91708959
 H     15  14  12     1.094509403568   109.44515815   188.82308787
 H      3   2   1     0.986857669950    15.50447175   214.12409222

---------------------------
INTERNAL COORDINATES (A.U.)
---------------------------
 S      0   0   0     0.000000000000     0.00000000     0.00000000
 O      1   0   0    10.399024697184     0.00000000     0.00000000
 O      2   1   0     4.983556841144    83.67397489     0.00000000
 O      3   2   1     4.223457799120    89.60407143   293.04624815
 N      2   1   3     4.352725966850    36.79752378   270.36636351
 N      5   2   1     4.164395002913    61.89111191   323.80339550
 C      5   2   1     2.699579103720   134.41533521   343.47355955
 C      6   5   2     2.719867053637    75.35495289   182.12152824
 C      7   5   2     2.863381513290   114.64161378    83.42678686
 C      8   6   5     2.872677140313   114.38347908   226.86123280
 C      9   7   5     2.851394703969   114.74353360   320.51626848
 C     11   9   7     2.869632523734   114.37874545   151.29766461
 C      2   1   3     2.297974348933    21.78719131   217.56317043
 C     12  11   9     2.879913451243   115.27399266   287.57411538
 C     14  12  11     2.882220745199   114.92174006   290.06900952
 C      4   3   2     2.290430647766    29.10927561   154.94717251
 H      7   5   2     2.068540274812   110.91120484   206.36856417
 H      8   6   5     2.073246972765   110.45308252   102.42404860
 H      9   7   5     2.057388929089   110.01758151    85.35297103
 H     10   8   6     2.060566024548   112.82263843   243.26702699
 H     10   8   6     2.052398170024   109.70601317     3.68806314
 H     11   9   7     2.052585898561   109.47217315   274.00943101
 H     11   9   7     2.030367685516   110.14977361    29.07680858
 H      5   2   1     1.918108463749    93.63916453   129.52408451
 H      6   5   2     1.897727808155   153.15482161   324.65167748
 H     12  11   9     2.069822081444   109.08015335    50.30735670
 H     12  11   9     2.069880023322   108.14396419   165.81903328
 H     14  12  11     2.061959866723   110.57635095    52.82767473
 H     14  12  11     2.073482869642   108.36383581   169.41035638
 H     15  14  12     2.059386130580   111.64042654   308.91708959
 H     15  14  12     2.068323023745   109.44515815   188.82308787
 H      3   2   1     1.864890729365    15.50447175   214.12409222

---------------------
BASIS SET INFORMATION
---------------------
There are 5 groups of distinct atoms

 Group   1 Type S   : 14s9p1d contracted to 5s4p1d pattern {73211/6111/1}
 Group   2 Type O   : 11s6p2d contracted to 5s3p2d pattern {62111/411/11}
 Group   3 Type N   : 11s6p1d contracted to 5s3p1d pattern {62111/411/1}
 Group   4 Type C   : 11s6p1d contracted to 5s3p1d pattern {62111/411/1}
 Group   5 Type H   : 5s contracted to 3s pattern {311}

Atom   0S    basis set group =>   1
Atom   1O    basis set group =>   2
Atom   2O    basis set group =>   2
Atom   3O    basis set group =>   2
Atom   4N    basis set group =>   3
Atom   5N    basis set group =>   3
Atom   6C    basis set group =>   4
Atom   7C    basis set group =>   4
Atom   8C    basis set group =>   4
Atom   9C    basis set group =>   4
Atom  10C    basis set group =>   4
Atom  11C    basis set group =>   4
Atom  12C    basis set group =>   4
Atom  13C    basis set group =>   4
Atom  14C    basis set group =>   4
Atom  15C    basis set group =>   4
Atom  16H    basis set group =>   5
Atom  17H    basis set group =>   5
Atom  18H    basis set group =>   5
Atom  19H    basis set group =>   5
Atom  20H    basis set group =>   5
Atom  21H    basis set group =>   5
Atom  22H    basis set group =>   5
Atom  23H    basis set group =>   5
Atom  24H    basis set group =>   5
Atom  25H    basis set group =>   5
Atom  26H    basis set group =>   5
Atom  27H    basis set group =>   5
Atom  28H    basis set group =>   5
Atom  29H    basis set group =>   5
Atom  30H    basis set group =>   5
Atom  31H    basis set group =>   5
---------------------------------
AUXILIARY/J BASIS SET INFORMATION
---------------------------------
There are 5 groups of distinct atoms

 Group   1 Type S   : 14s5p5d2f1g contracted to 8s4p3d1f1g pattern {71111111/2111/311/2/1}
 Group   2 Type O   : 8s3p3d contracted to 6s3p3d pattern {311111/111/111}
 Group   3 Type N   : 8s3p3d contracted to 6s3p3d pattern {311111/111/111}
 Group   4 Type C   : 8s3p3d contracted to 6s3p3d pattern {311111/111/111}
 Group   5 Type H   : 5s2p contracted to 3s1p pattern {311/2}

Atom   0S    basis set group =>   1
Atom   1O    basis set group =>   2
Atom   2O    basis set group =>   2
Atom   3O    basis set group =>   2
Atom   4N    basis set group =>   3
Atom   5N    basis set group =>   3
Atom   6C    basis set group =>   4
Atom   7C    basis set group =>   4
Atom   8C    basis set group =>   4
Atom   9C    basis set group =>   4
Atom  10C    basis set group =>   4
Atom  11C    basis set group =>   4
Atom  12C    basis set group =>   4
Atom  13C    basis set group =>   4
Atom  14C    basis set group =>   4
Atom  15C    basis set group =>   4
Atom  16H    basis set group =>   5
Atom  17H    basis set group =>   5
Atom  18H    basis set group =>   5
Atom  19H    basis set group =>   5
Atom  20H    basis set group =>   5
Atom  21H    basis set group =>   5
Atom  22H    basis set group =>   5
Atom  23H    basis set group =>   5
Atom  24H    basis set group =>   5
Atom  25H    basis set group =>   5
Atom  26H    basis set group =>   5
Atom  27H    basis set group =>   5
Atom  28H    basis set group =>   5
Atom  29H    basis set group =>   5
Atom  30H    basis set group =>   5
Atom  31H    basis set group =>   5


           ************************************************************
           *        Program running with 16 parallel MPI-processes    *
           *              working on a common directory               *
           ************************************************************
------------------------------------------------------------------------------
                             ORCA STARTUP CALCULATIONS
                           -- RI-GTO INTEGRALS CHOSEN --
------------------------------------------------------------------------------
------------------------------------------------------------------------------
                   ___                                                        
                  /   \      - P O W E R E D   B Y -                         
                 /     \                                                     
                 |  |  |   _    _      __       _____    __    __             
                 |  |  |  | |  | |    /  \     |  _  \  |  |  /  |          
                  \  \/   | |  | |   /    \    | | | |  |  | /  /          
                 / \  \   | |__| |  /  /\  \   | |_| |  |  |/  /          
                |  |  |   |  __  | /  /__\  \  |    /   |      \           
                |  |  |   | |  | | |   __   |  |    \   |  |\   \          
                \     /   | |  | | |  |  |  |  | |\  \  |  | \   \       
                 \___/    |_|  |_| |__|  |__|  |_| \__\ |__|  \__/        
                                                                              
                      - O R C A' S   B I G   F R I E N D -                    
                                      &                                       
                       - I N T E G R A L  F E E D E R -                       
                                                                              
 v1 FN, 2020, v2 2021, v3 2022-2024                                           
------------------------------------------------------------------------------


----------------------
SHARK INTEGRAL PACKAGE
----------------------

Number of atoms                             ...     32
Number of basis functions                   ...    370
Number of shells                            ...    196
Maximum angular momentum                    ...      2
Integral batch strategy                     ... SHARK/LIBINT Hybrid
RI-J (if used) integral strategy            ... SPLIT-RIJ (Revised 2003 algorithm where possible)
Printlevel                                  ...      1
Contraction scheme used                     ... SEGMENTED contraction
Prescreening option                         ... SCHWARTZ
   Thresh                                   ... 2.500e-11
   Tcut                                     ... 2.500e-12
   Tpresel                                  ... 2.500e-12 
Coulomb Range Separation                    ... NOT USED
Exchange Range Separation                   ... NOT USED
Multipole approximations                    ... NOT USED
Finite Nucleus Model                        ... NOT USED
CABS basis                                  ... NOT available
Auxiliary Coulomb fitting basis             ... AVAILABLE
   # of basis functions in Aux-J            ...    597
   # of shells in Aux-J                     ...    261
   Maximum angular momentum in Aux-J        ...      4
Auxiliary J/K fitting basis                 ... NOT available
Auxiliary Correlation fitting basis         ... NOT available
Auxiliary 'external' fitting basis          ... NOT available

Checking pre-screening integrals            ... done (  0.0 sec) Dimension = 196
Check shell pair data                       ... done (  0.0 sec)
Shell pair information
Shell pair cut-off parameter TPreSel        ...   2.5e-12
Total number of shell pairs                 ...     19306
Shell pairs after pre-screening             ...     16483
Total number of primitive shell pairs       ...     71671
Primitive shell pairs kept                  ...     40153
          la=0 lb=0:   6666 shell pairs
          la=1 lb=0:   5586 shell pairs
          la=1 lb=1:   1166 shell pairs
          la=2 lb=0:   2035 shell pairs
          la=2 lb=1:    862 shell pairs
          la=2 lb=2:    168 shell pairs

Calculating one electron integrals          ... done (  0.0 sec)
Calculating RI/J V-Matrix + Cholesky decomp.... done (  0.0 sec)
Calculating Nuclear repulsion               ... done (  0.0 sec) ENN=   1390.806906892721 Eh

Diagonalization of the overlap matrix:
Smallest eigenvalue                        ... 3.804e-05
Time for diagonalization                   ...    0.012 sec
Threshold for overlap eigenvalues          ... 1.000e-07
Number of eigenvalues below threshold      ... 0
Time for construction of square roots      ...    0.006 sec
Total time needed                          ...    0.019 sec

-------------------
DFT GRID GENERATION
-------------------

General Integration Accuracy     IntAcc      ... 4.959
Radial Grid Type                 RadialGrid  ... OptM3 with GC (2021)
Angular Grid (max. ang.)         AngularGrid ... 6 (Lebedev-590)
Angular grid pruning method      GridPruning ... 4 (adaptive)
Weight generation scheme         WeightScheme... mBecke (2022)
Basis function cutoff            BFCut       ... 1.0000e-11
Integration weight cutoff        WCut        ... 1.0000e-14
Partially contracted basis set               ... off
Rotationally invariant grid construction     ... off
Angular grids for H and He will be reduced by one unit
Diffuse basis detected: some atoms will have their outermost
                        angular grid increased by 1.

Total number of grid points                  ...   364041
Total number of batches                      ...     5703
Average number of points per batch           ...       63
Average number of grid points per atom       ...    11376
Initializing property integral containers    ... done (  0.0 sec)

SHARK setup successfully completed in   2.7 seconds

Maximum memory used throughout the entire STARTUP-calculation: 85.9 MB


           ************************************************************
           *        Program running with 16 parallel MPI-processes    *
           *              working on a common directory               *
           ************************************************************
-------------------------------------------------------------------------------
                                 ORCA GUESS
                   Start orbitals & Density for SCF / CASSCF
-------------------------------------------------------------------------------

------------
SCF SETTINGS
------------
Hamiltonian:
 Density Functional     Method          .... DFT(GTOs)
 Exchange Functional    Exchange        .... B973C
 Correlation Functional Correlation     .... B973C
 Gradients option       PostSCFGGA      .... off
 RI-approximation to the Coulomb term is turned on
   Number of AuxJ basis functions       .... 597


General Settings:
 Integral files         IntName         .... m1_00_Vitamin_B7-QM3_000-B97-3C-TZ
 Hartree-Fock type      HFTyp           .... RHF
 Total Charge           Charge          ....    0
 Multiplicity           Mult            ....    1
 Number of Electrons    NEL             ....  130
 Basis Dimension        Dim             ....  370
 Nuclear Repulsion      ENuc            ....   1390.8069068927 Eh

Convergence Acceleration:
 AO-DIIS                CNVDIIS         .... on
   Start iteration      DIISMaxIt       ....    12
   Startup error        DIISStart       ....  0.200000
   # of expansion vecs  DIISMaxEq       ....     5
   Bias factor          DIISBfac        ....   1.050
   Max. coefficient     DIISMaxC        ....  10.000
 MO-DIIS                CNVKDIIS        .... off
 Trust-Rad. Augm. Hess. CNVTRAH         .... off
 SOSCF                  CNVSOSCF        .... on
   Start iteration      SOSCFMaxIt      ....   150
   Startup grad/error   SOSCFStart      ....  0.003300
   Hessian update       SOSCFHessUp     .... L-BFGS
 Level Shifting         CNVShift        .... on
   Level shift para.    LevelShift      ....    0.2500
   Turn off err/grad.   ShiftErr        ....    0.0010
 Zerner damping         CNVZerner       .... off
 Static damping         CNVDamp         .... on
   Fraction old density DampFac         ....    0.7000
   Max. Damping (<1)    DampMax         ....    0.9800
   Min. Damping (>=0)   DampMin         ....    0.0000
   Turn off err/grad.   DampErr         ....    0.1000

SCF Procedure:
 Maximum # iterations   MaxIter         ....   800
 SCF integral mode      SCFMode         .... Direct
   Integral package                     .... SHARK and LIBINT hybrid scheme
 Reset frequency        DirectResetFreq ....    20
 Integral Threshold     Thresh          ....  2.500e-11 Eh
 Primitive CutOff       TCut            ....  2.500e-12 Eh

Convergence Tolerance:
 Convergence Check Mode ConvCheckMode   .... Total+1el-Energy
 Convergence forced     ConvForced      .... 0
 Energy Change          TolE            ....  1.000e-08 Eh
 1-El. energy change                    ....  1.000e-05 Eh
 Orbital Gradient       TolG            ....  1.000e-05
 Orbital Rotation angle TolX            ....  1.000e-05
 DIIS Error             TolErr          ....  5.000e-07

--------------------------------
INITIAL GUESS: MINIMAL BASIS EHT
--------------------------------
The minimal basis has 100 functions
EHT matrix was diagonalized
Basis set overlap was calculated now projecting the orbitals
Using GuessMode=FMatrix for the initial guess
C*T matrix was formed
Effective Fockian was calculated
Effective Fockian was diagonalized
Initial density was built
                      ------------------
                      INITIAL GUESS DONE
                      ------------------
             **** ENERGY FILE WAS UPDATED (m1_00_Vitamin_B7-QM3_000-B97-3C-TZ.en.tmp) ****
Finished Guess after   0.2 sec
Maximum memory used throughout the entire GUESS-calculation: 29.9 MB


           ************************************************************
           *        Program running with 16 parallel MPI-processes    *
           *              working on a common directory               *
           ************************************************************

-------------------------------------------------------------------------------------------
                                      ORCA LEAN-SCF
                              memory conserving SCF solver
-------------------------------------------------------------------------------------------

----------------------------------------D-I-I-S--------------------------------------------
Iteration    Energy (Eh)           Delta-E    RMSDP     MaxDP     DIISErr   Damp  Time(sec)
-------------------------------------------------------------------------------------------
               ***  Starting incremental Fock matrix formation  ***
    1    -1120.8677940428758575     0.00e+00  5.78e-03  1.77e-01  8.30e-01  0.700   0.6
    2    -1121.8417652615710267    -9.74e-01  4.36e-03  1.30e-01  5.56e-01  0.700   0.6
    3    -1122.3387347439922905    -4.97e-01  2.91e-03  9.61e-02  3.70e-01  0.700   0.5
    4    -1122.7035787617176084    -3.65e-01  2.08e-03  6.87e-02  2.49e-01  0.700   0.5
                               ***Turning on AO-DIIS***
    5    -1122.9609255725370076    -2.57e-01  1.51e-03  6.42e-02  1.68e-01  0.700   0.5
    6    -1123.1388682587773928    -1.78e-01  1.09e-03  4.13e-02  1.20e-01  0.700   0.5
    7    -1123.2642928955076513    -1.25e-01  8.32e-04  3.80e-02  8.49e-02  0.700   0.5
    8    -1123.3521857320381514    -8.79e-02  1.90e-03  7.01e-02  5.93e-02  0.000   0.5
    9    -1123.5573330987010650    -2.05e-01  1.63e-04  7.43e-03  8.44e-03  0.000   0.5
   10    -1123.5575205698266927    -1.87e-04  4.50e-05  1.75e-03  5.99e-03  0.000   0.5
                              *** Initializing SOSCF ***
---------------------------------------S-O-S-C-F--------------------------------------
Iteration    Energy (Eh)           Delta-E    RMSDP     MaxDP     MaxGrad    Time(sec)
--------------------------------------------------------------------------------------
   11    -1123.5576153836402682    -9.48e-05  2.75e-05  1.97e-03  9.70e-04     0.5
               *** Restarting incremental Fock matrix formation ***
   12    -1123.5576234284910697    -8.04e-06  2.50e-05  1.67e-03  1.31e-04     0.6
   13    -1123.5576214934956170     1.93e-06  1.04e-05  3.70e-04  3.70e-04     0.5
   14    -1123.5576238763676429    -2.38e-06  1.15e-05  7.95e-04  4.15e-05     0.4
   15    -1123.5576237486109221     1.28e-07  4.90e-06  2.06e-04  5.86e-05     0.4
   16    -1123.5576239355480084    -1.87e-07  7.71e-06  7.66e-04  8.77e-06     0.4
   17    -1123.5576239183717462     1.72e-08  2.20e-06  1.62e-04  1.78e-05     0.4
   18    -1123.5576239379477101    -1.96e-08  3.06e-06  2.45e-04  3.11e-06     0.4
   19    -1123.5576239375980094     3.50e-10  9.65e-07  4.65e-05  5.59e-06     0.4
                 **** Energy Check signals convergence ****

               *****************************************************
               *                     SUCCESS                       *
               *           SCF CONVERGED AFTER  19 CYCLES          *
               *****************************************************

             **** ENERGY FILE WAS UPDATED (m1_00_Vitamin_B7-QM3_000-B97-3C-TZ.en.tmp) ****

----------------
TOTAL SCF ENERGY
----------------

Total Energy       :      -1123.55762393759801 Eh          -30573.55728 eV

Components:
Nuclear Repulsion  :       1390.80690689272092 Eh           37845.77998 eV
Electronic Energy  :      -2514.36453083031938 Eh          -68419.33726 eV
One Electron Energy:      -4303.55364110500341 Eh         -117105.64811 eV
Two Electron Energy:       1789.18911027468425 Eh           48686.31085 eV

Virial components:
Potential Energy   :      -2244.26366660753683 Eh          -61069.51908 eV
Kinetic Energy     :       1120.70604266993905 Eh           30495.96181 eV
Virial Ratio       :          2.00254445069366

DFT components:
N(Alpha)           :       64.999995384972 electrons
N(Beta)            :       64.999995384972 electrons
N(Total)           :      129.999990769944 electrons
E(XC)              :     -125.221369102515 Eh       

---------------
SCF CONVERGENCE
---------------

  Last Energy change         ...   -3.4970e-10  Tolerance :   1.0000e-08
  Last MAX-Density change    ...    4.6543e-05  Tolerance :   1.0000e-07
  Last RMS-Density change    ...    9.6467e-07  Tolerance :   5.0000e-09
  Last DIIS Error            ...    9.6971e-04  Tolerance :   5.0000e-07
  Last Orbital Gradient      ...    5.5920e-06  Tolerance :   1.0000e-05
  Last Orbital Rotation      ...    6.2481e-06  Tolerance :   1.0000e-05


----------------
ORBITAL ENERGIES
----------------

  NO   OCC          E(Eh)            E(eV) 
   0   2.0000     -88.023373     -2395.2377 
   1   2.0000     -18.778499      -510.9889 
   2   2.0000     -18.732123      -509.7270 
   3   2.0000     -18.720496      -509.4106 
   4   2.0000     -14.018349      -381.4587 
   5   2.0000     -14.001349      -380.9961 
   6   2.0000     -10.016592      -272.5653 
   7   2.0000     -10.012186      -272.4454 
   8   2.0000      -9.953294      -270.8429 
   9   2.0000      -9.945271      -270.6246 
  10   2.0000      -9.931946      -270.2620 
  11   2.0000      -9.929522      -270.1960 
  12   2.0000      -9.903329      -269.4833 
  13   2.0000      -9.899692      -269.3843 
  14   2.0000      -9.892645      -269.1926 
  15   2.0000      -9.887447      -269.0511 
  16   2.0000      -7.714994      -209.9357 
  17   2.0000      -5.746767      -156.3775 
  18   2.0000      -5.742143      -156.2516 
  19   2.0000      -5.733138      -156.0066 
  20   2.0000      -1.026395       -27.9296 
  21   2.0000      -0.987321       -26.8664 
  22   2.0000      -0.939951       -25.5774 
  23   2.0000      -0.911435       -24.8014 
  24   2.0000      -0.829065       -22.5600 
  25   2.0000      -0.791733       -21.5441 
  26   2.0000      -0.749882       -20.4053 
  27   2.0000      -0.707024       -19.2391 
  28   2.0000      -0.668988       -18.2041 
  29   2.0000      -0.664599       -18.0847 
  30   2.0000      -0.618654       -16.8344 
  31   2.0000      -0.588470       -16.0131 
  32   2.0000      -0.571434       -15.5495 
  33   2.0000      -0.550695       -14.9852 
  34   2.0000      -0.538569       -14.6552 
  35   2.0000      -0.509587       -13.8666 
  36   2.0000      -0.489017       -13.3068 
  37   2.0000      -0.481359       -13.0985 
  38   2.0000      -0.463225       -12.6050 
  39   2.0000      -0.457252       -12.4425 
  40   2.0000      -0.438512       -11.9325 
  41   2.0000      -0.427314       -11.6278 
  42   2.0000      -0.422687       -11.5019 
  43   2.0000      -0.404609       -11.0100 
  44   2.0000      -0.397111       -10.8059 
  45   2.0000      -0.392547       -10.6817 
  46   2.0000      -0.387389       -10.5414 
  47   2.0000      -0.384158       -10.4535 
  48   2.0000      -0.375686       -10.2229 
  49   2.0000      -0.359411        -9.7801 
  50   2.0000      -0.357319        -9.7232 
  51   2.0000      -0.340011        -9.2522 
  52   2.0000      -0.331288        -9.0148 
  53   2.0000      -0.330831        -9.0024 
  54   2.0000      -0.324244        -8.8231 
  55   2.0000      -0.306375        -8.3369 
  56   2.0000      -0.299308        -8.1446 
  57   2.0000      -0.291545        -7.9333 
  58   2.0000      -0.284965        -7.7543 
  59   2.0000      -0.276849        -7.5334 
  60   2.0000      -0.244718        -6.6591 
  61   2.0000      -0.237947        -6.4749 
  62   2.0000      -0.234157        -6.3717 
  63   2.0000      -0.217426        -5.9164 
  64   2.0000      -0.197338        -5.3698 
  65   0.0000      -0.033447        -0.9101 
  66   0.0000      -0.014176        -0.3857 
  67   0.0000       0.006198         0.1687 
  68   0.0000       0.009759         0.2655 
  69   0.0000       0.023377         0.6361 
  70   0.0000       0.034234         0.9315 
  71   0.0000       0.041709         1.1350 
  72   0.0000       0.046564         1.2671 
  73   0.0000       0.058988         1.6051 
  74   0.0000       0.067461         1.8357 
  75   0.0000       0.071161         1.9364 
*Only the first 10 virtual orbitals were printed.

                    ********************************
                    * MULLIKEN POPULATION ANALYSIS *
                    ********************************

-----------------------
MULLIKEN ATOMIC CHARGES
-----------------------
   0 S :    0.005097
   1 O :   -0.504828
   2 O :   -0.466559
   3 O :   -0.453236
   4 N :   -0.306236
   5 N :   -0.393634
   6 C :   -0.184526
   7 C :   -0.078302
   8 C :   -0.236010
   9 C :   -0.409598
  10 C :   -0.320452
  11 C :   -0.316805
  12 C :    0.286284
  13 C :   -0.316531
  14 C :   -0.281892
  15 C :    0.301941
  16 H :    0.207348
  17 H :    0.188706
  18 H :    0.243139
  19 H :    0.205662
  20 H :    0.198954
  21 H :    0.192404
  22 H :    0.265500
  23 H :    0.366396
  24 H :    0.352100
  25 H :    0.165427
  26 H :    0.161416
  27 H :    0.162237
  28 H :    0.184606
  29 H :    0.163330
  30 H :    0.189434
  31 H :    0.428625
Sum of atomic charges:   -0.0000000

--------------------------------
MULLIKEN REDUCED ORBITAL CHARGES
--------------------------------
  0 S s       :     5.901808  s :     5.901808
      pz      :     3.540619  p :    10.009954
      px      :     3.273765
      py      :     3.195570
      dz2     :     0.009424  d :     0.083141
      dxz     :     0.014199
      dyz     :     0.016562
      dx2y2   :     0.025802
      dxy     :     0.017154

  1 O s       :     3.852763  s :     3.852763
      pz      :     1.712250  p :     4.619239
      px      :     1.394325
      py      :     1.512664
      dz2     :     0.009492  d :     0.032826
      dxz     :     0.003872
      dyz     :     0.004563
      dx2y2   :    -0.000443
      dxy     :     0.015342

  2 O s       :     3.751866  s :     3.751866
      pz      :     1.642642  p :     4.682841
      px      :     1.686003
      py      :     1.354196
      dz2     :     0.006960  d :     0.031852
      dxz     :     0.006938
      dyz     :     0.008554
      dx2y2   :     0.003910
      dxy     :     0.005491

  3 O s       :     3.838034  s :     3.838034
      pz      :     1.377764  p :     4.580404
      px      :     1.433489
      py      :     1.769151
      dz2     :     0.007654  d :     0.034798
      dxz     :     0.010869
      dyz     :     0.003916
      dx2y2   :     0.007366
      dxy     :     0.004992

  4 N s       :     3.371815  s :     3.371815
      pz      :     1.324940  p :     3.892833
      px      :     1.310992
      py      :     1.256901
      dz2     :     0.005431  d :     0.041587
      dxz     :     0.010981
      dyz     :     0.009942
      dx2y2   :     0.007597
      dxy     :     0.007636

  5 N s       :     3.339248  s :     3.339248
      pz      :     1.404935  p :     4.014240
      px      :     1.242550
      py      :     1.366754
      dz2     :     0.004650  d :     0.040146
      dxz     :     0.009563
      dyz     :     0.010725
      dx2y2   :     0.008398
      dxy     :     0.006809

  6 C s       :     3.197210  s :     3.197210
      pz      :     1.049982  p :     2.920477
      px      :     0.962468
      py      :     0.908028
      dz2     :     0.008031  d :     0.066839
      dxz     :     0.014472
      dyz     :     0.015818
      dx2y2   :     0.011968
      dxy     :     0.016550

  7 C s       :     3.129324  s :     3.129324
      pz      :     0.933735  p :     2.884590
      px      :     0.999231
      py      :     0.951623
      dz2     :     0.008417  d :     0.064388
      dxz     :     0.014643
      dyz     :     0.012849
      dx2y2   :     0.010668
      dxy     :     0.017811

  8 C s       :     3.068507  s :     3.068507
      pz      :     1.083033  p :     3.116435
      px      :     0.948676
      py      :     1.084726
      dz2     :     0.006428  d :     0.051068
      dxz     :     0.011479
      dyz     :     0.013454
      dx2y2   :     0.010628
      dxy     :     0.009078

  9 C s       :     3.188202  s :     3.188202
      pz      :     1.047786  p :     3.178440
      px      :     1.207044
      py      :     0.923610
      dz2     :     0.008451  d :     0.042956
      dxz     :     0.008902
      dyz     :     0.009780
      dx2y2   :     0.010971
      dxy     :     0.004852

 10 C s       :     3.085324  s :     3.085324
      pz      :     1.075377  p :     3.189801
      px      :     1.038985
      py      :     1.075439
      dz2     :     0.009650  d :     0.045327
      dxz     :     0.010465
      dyz     :     0.005792
      dx2y2   :     0.007133
      dxy     :     0.012287

 11 C s       :     3.166313  s :     3.166313
      pz      :     1.023137  p :     3.105667
      px      :     1.035511
      py      :     1.047019
      dz2     :     0.009048  d :     0.044825
      dxz     :     0.012912
      dyz     :     0.004521
      dx2y2   :     0.005853
      dxy     :     0.012491

 12 C s       :     3.057587  s :     3.057587
      pz      :     0.852557  p :     2.524240
      px      :     0.782640
      py      :     0.889043
      dz2     :     0.019700  d :     0.131888
      dxz     :     0.034299
      dyz     :     0.024057
      dx2y2   :     0.035425
      dxy     :     0.018408

 13 C s       :     3.165445  s :     3.165445
      pz      :     1.025027  p :     3.106485
      px      :     1.020198
      py      :     1.061260
      dz2     :     0.010048  d :     0.044601
      dxz     :     0.013215
      dyz     :     0.003467
      dx2y2   :     0.006693
      dxy     :     0.011178

 14 C s       :     3.120022  s :     3.120022
      pz      :     1.115621  p :     3.118858
      px      :     1.025726
      py      :     0.977511
      dz2     :     0.006313  d :     0.043013
      dxz     :     0.013174
      dyz     :     0.006168
      dx2y2   :     0.007845
      dxy     :     0.009512

 15 C s       :     3.150023  s :     3.150023
      pz      :     0.781040  p :     2.423598
      px      :     0.786930
      py      :     0.855627
      dz2     :     0.031482  d :     0.124438
      dxz     :     0.018788
      dyz     :     0.039799
      dx2y2   :     0.014449
      dxy     :     0.019920

 16 H s       :     0.792652  s :     0.792652

 17 H s       :     0.811294  s :     0.811294

 18 H s       :     0.756861  s :     0.756861

 19 H s       :     0.794338  s :     0.794338

 20 H s       :     0.801046  s :     0.801046

 21 H s       :     0.807596  s :     0.807596

 22 H s       :     0.734500  s :     0.734500

 23 H s       :     0.633604  s :     0.633604

 24 H s       :     0.647900  s :     0.647900

 25 H s       :     0.834573  s :     0.834573

 26 H s       :     0.838584  s :     0.838584

 27 H s       :     0.837763  s :     0.837763

 28 H s       :     0.815394  s :     0.815394

 29 H s       :     0.836670  s :     0.836670

 30 H s       :     0.810566  s :     0.810566

 31 H s       :     0.571375  s :     0.571375



                     *******************************
                     * LOEWDIN POPULATION ANALYSIS *
                     *******************************

----------------------
LOEWDIN ATOMIC CHARGES
----------------------
   0 S :    0.375876
   1 O :   -0.567413
   2 O :   -0.542882
   3 O :   -0.520282
   4 N :   -0.216421
   5 N :   -0.241818
   6 C :   -0.121707
   7 C :   -0.109467
   8 C :   -0.347069
   9 C :   -0.444722
  10 C :   -0.313902
  11 C :   -0.289825
  12 C :    0.272254
  13 C :   -0.275609
  14 C :   -0.220817
  15 C :    0.345513
  16 H :    0.169236
  17 H :    0.160459
  18 H :    0.170848
  19 H :    0.162504
  20 H :    0.156777
  21 H :    0.164845
  22 H :    0.195393
  23 H :    0.336484
  24 H :    0.296329
  25 H :    0.159178
  26 H :    0.159391
  27 H :    0.165314
  28 H :    0.158823
  29 H :    0.179965
  30 H :    0.183618
  31 H :    0.399133

-------------------------------
LOEWDIN REDUCED ORBITAL CHARGES
-------------------------------
  0 S s       :     5.420522  s :     5.420522
      pz      :     3.531801  p :    10.104295
      px      :     3.313839
      py      :     3.258656
      dz2     :     0.011045  d :     0.099307
      dxz     :     0.018466
      dyz     :     0.019621
      dx2y2   :     0.030140
      dxy     :     0.020035

  1 O s       :     3.531024  s :     3.531024
      pz      :     1.693305  p :     4.737514
      px      :     1.487830
      py      :     1.556379
      dz2     :     0.039302  d :     0.298874
      dxz     :     0.051441
      dyz     :     0.038407
      dx2y2   :     0.073660
      dxy     :     0.096064

  2 O s       :     3.494224  s :     3.494224
      pz      :     1.651525  p :     4.716196
      px      :     1.647926
      py      :     1.416745
      dz2     :     0.070096  d :     0.332462
      dxz     :     0.045425
      dyz     :     0.065782
      dx2y2   :     0.061643
      dxy     :     0.089516

  3 O s       :     3.526088  s :     3.526088
      pz      :     1.488737  p :     4.686227
      px      :     1.471069
      py      :     1.726422
      dz2     :     0.073569  d :     0.307967
      dxz     :     0.080185
      dyz     :     0.063150
      dx2y2   :     0.040243
      dxy     :     0.050820

  4 N s       :     3.122875  s :     3.122875
      pz      :     1.374548  p :     4.016725
      px      :     1.334626
      py      :     1.307552
      dz2     :     0.009995  d :     0.076821
      dxz     :     0.017634
      dyz     :     0.019204
      dx2y2   :     0.013948
      dxy     :     0.016041

  5 N s       :     3.119444  s :     3.119444
      pz      :     1.389615  p :     4.047230
      px      :     1.299246
      py      :     1.358370
      dz2     :     0.008714  d :     0.075144
      dxz     :     0.019089
      dyz     :     0.016689
      dx2y2   :     0.016184
      dxy     :     0.014467

  6 C s       :     2.873196  s :     2.873196
      pz      :     1.074336  p :     3.115907
      px      :     1.013199
      py      :     1.028372
      dz2     :     0.015201  d :     0.132604
      dxz     :     0.026933
      dyz     :     0.032084
      dx2y2   :     0.024161
      dxy     :     0.034226

  7 C s       :     2.875239  s :     2.875239
      pz      :     1.055799  p :     3.108058
      px      :     1.032863
      py      :     1.019396
      dz2     :     0.015870  d :     0.126170
      dxz     :     0.027530
      dyz     :     0.027196
      dx2y2   :     0.019305
      dxy     :     0.036270

  8 C s       :     2.956282  s :     2.956282
      pz      :     1.108936  p :     3.291041
      px      :     1.089463
      py      :     1.092642
      dz2     :     0.011734  d :     0.099746
      dxz     :     0.024096
      dyz     :     0.024234
      dx2y2   :     0.021581
      dxy     :     0.018101

  9 C s       :     3.013484  s :     3.013484
      pz      :     1.122454  p :     3.352717
      px      :     1.157524
      py      :     1.072738
      dz2     :     0.014335  d :     0.078522
      dxz     :     0.014421
      dyz     :     0.020617
      dx2y2   :     0.020703
      dxy     :     0.008447

 10 C s       :     2.921079  s :     2.921079
      pz      :     1.111376  p :     3.310405
      px      :     1.081562
      py      :     1.117467
      dz2     :     0.016282  d :     0.082419
      dxz     :     0.019748
      dyz     :     0.009708
      dx2y2   :     0.013856
      dxy     :     0.022826

 11 C s       :     2.930278  s :     2.930278
      pz      :     1.091529  p :     3.278789
      px      :     1.088786
      py      :     1.098473
      dz2     :     0.016318  d :     0.080758
      dxz     :     0.023129
      dyz     :     0.008351
      dx2y2   :     0.010442
      dxy     :     0.022518

 12 C s       :     2.739740  s :     2.739740
      pz      :     0.884809  p :     2.700294
      px      :     0.921573
      py      :     0.893913
      dz2     :     0.040501  d :     0.287711
      dxz     :     0.075754
      dyz     :     0.053301
      dx2y2   :     0.073460
      dxy     :     0.044695

 13 C s       :     2.929404  s :     2.929404
      pz      :     1.106679  p :     3.265889
      px      :     1.081419
      py      :     1.077791
      dz2     :     0.017922  d :     0.080316
      dxz     :     0.023888
      dyz     :     0.006281
      dx2y2   :     0.011692
      dxy     :     0.020532

 14 C s       :     2.918455  s :     2.918455
      pz      :     1.106925  p :     3.227551
      px      :     1.079665
      py      :     1.040961
      dz2     :     0.010589  d :     0.074810
      dxz     :     0.021455
      dyz     :     0.010479
      dx2y2   :     0.013892
      dxy     :     0.018395

 15 C s       :     2.744843  s :     2.744843
      pz      :     0.908307  p :     2.633321
      px      :     0.799013
      py      :     0.926002
      dz2     :     0.068008  d :     0.276323
      dxz     :     0.046313
      dyz     :     0.091064
      dx2y2   :     0.029962
      dxy     :     0.040976

 16 H s       :     0.830764  s :     0.830764

 17 H s       :     0.839541  s :     0.839541

 18 H s       :     0.829152  s :     0.829152

 19 H s       :     0.837496  s :     0.837496

 20 H s       :     0.843223  s :     0.843223

 21 H s       :     0.835155  s :     0.835155

 22 H s       :     0.804607  s :     0.804607

 23 H s       :     0.663516  s :     0.663516

 24 H s       :     0.703671  s :     0.703671

 25 H s       :     0.840822  s :     0.840822

 26 H s       :     0.840609  s :     0.840609

 27 H s       :     0.834686  s :     0.834686

 28 H s       :     0.841177  s :     0.841177

 29 H s       :     0.820035  s :     0.820035

 30 H s       :     0.816382  s :     0.816382

 31 H s       :     0.600867  s :     0.600867



                      *****************************
                      * MAYER POPULATION ANALYSIS *
                      *****************************

  NA   - Mulliken gross atomic population
  ZA   - Total nuclear charge
  QA   - Mulliken gross atomic charge
  VA   - Mayer's total valence
  BVA  - Mayer's bonded valence
  FA   - Mayer's free valence

  ATOM       NA         ZA         QA         VA         BVA        FA
  0 S     15.9949    16.0000     0.0051     2.1348     2.1348     0.0000
  1 O      8.5048     8.0000    -0.5048     2.0116     2.0116     0.0000
  2 O      8.4666     8.0000    -0.4666     1.8757     1.8757    -0.0000
  3 O      8.4532     8.0000    -0.4532     1.9748     1.9748    -0.0000
  4 N      7.3062     7.0000    -0.3062     2.8217     2.8217    -0.0000
  5 N      7.3936     7.0000    -0.3936     2.9618     2.9618    -0.0000
  6 C      6.1845     6.0000    -0.1845     3.6458     3.6458    -0.0000
  7 C      6.0783     6.0000    -0.0783     3.7982     3.7982    -0.0000
  8 C      6.2360     6.0000    -0.2360     3.5884     3.5884    -0.0000
  9 C      6.4096     6.0000    -0.4096     3.8257     3.8257     0.0000
 10 C      6.3205     6.0000    -0.3205     3.7510     3.7510    -0.0000
 11 C      6.3168     6.0000    -0.3168     3.8199     3.8199     0.0000
 12 C      5.7137     6.0000     0.2863     4.3464     4.3464    -0.0000
 13 C      6.3165     6.0000    -0.3165     3.7533     3.7533    -0.0000
 14 C      6.2819     6.0000    -0.2819     3.7207     3.7207    -0.0000
 15 C      5.6981     6.0000     0.3019     4.0155     4.0155    -0.0000
 16 H      0.7927     1.0000     0.2073     0.9455     0.9455    -0.0000
 17 H      0.8113     1.0000     0.1887     0.9425     0.9425    -0.0000
 18 H      0.7569     1.0000     0.2431     0.9155     0.9155    -0.0000
 19 H      0.7943     1.0000     0.2057     0.9336     0.9336     0.0000
 20 H      0.8010     1.0000     0.1990     0.9419     0.9419     0.0000
 21 H      0.8076     1.0000     0.1924     0.9377     0.9377    -0.0000
 22 H      0.7345     1.0000     0.2655     0.8635     0.8635     0.0000
 23 H      0.6336     1.0000     0.3664     0.8866     0.8866     0.0000
 24 H      0.6479     1.0000     0.3521     0.8580     0.8580    -0.0000
 25 H      0.8346     1.0000     0.1654     0.9645     0.9645     0.0000
 26 H      0.8386     1.0000     0.1614     0.9484     0.9484     0.0000
 27 H      0.8378     1.0000     0.1622     0.9653     0.9653     0.0000
 28 H      0.8154     1.0000     0.1846     0.9410     0.9410    -0.0000
 29 H      0.8367     1.0000     0.1633     0.9649     0.9649     0.0000
 30 H      0.8106     1.0000     0.1894     0.9439     0.9439    -0.0000
 31 H      0.5714     1.0000     0.4286     0.8241     0.8241    -0.0000

  Mayer bond orders larger than 0.100000
B(  0-S ,  8-C ) :   0.9499 B(  0-S ,  9-C ) :   1.0356 B(  1-O , 12-C ) :   1.8084 
B(  1-O , 31-H ) :   0.1784 B(  2-O , 15-C ) :   1.2050 B(  2-O , 31-H ) :   0.6317 
B(  3-O , 15-C ) :   1.7938 B(  3-O , 23-H ) :   0.1193 B(  4-N ,  6-C ) :   0.9381 
B(  4-N , 12-C ) :   1.2163 B(  4-N , 23-H ) :   0.7385 B(  5-N ,  7-C ) :   0.9662 
B(  5-N , 12-C ) :   1.1601 B(  5-N , 24-H ) :   0.8138 B(  6-C ,  7-C ) :   0.9804 
B(  6-C ,  8-C ) :   0.8190 B(  6-C , 16-H ) :   0.9523 B(  7-C ,  9-C ) :   0.9857 
B(  7-C , 17-H ) :   0.8821 B(  8-C , 10-C ) :   0.9580 B(  8-C , 18-H ) :   0.9074 
B(  9-C , 19-H ) :   0.9149 B(  9-C , 20-H ) :   0.9534 B( 10-C , 11-C ) :   0.9488 
B( 10-C , 21-H ) :   0.9182 B( 10-C , 22-H ) :   0.9118 B( 11-C , 13-C ) :   0.9713 
B( 11-C , 25-H ) :   0.9350 B( 11-C , 26-H ) :   0.9447 B( 13-C , 14-C ) :   0.9316 
B( 13-C , 27-H ) :   0.9536 B( 13-C , 28-H ) :   0.9405 B( 14-C , 15-C ) :   0.9609 
B( 14-C , 29-H ) :   0.9631 B( 14-C , 30-H ) :   0.9243 


------------------
HIRSHFELD ANALYSIS
------------------

Total integrated alpha density =     64.999995385
Total integrated beta density  =     64.999995385

  ATOM     CHARGE      SPIN    
   0 S   -0.074347    0.000000
   1 O   -0.295478    0.000000
   2 O   -0.167708    0.000000
   3 O   -0.262574    0.000000
   4 N   -0.132257    0.000000
   5 N   -0.120675    0.000000
   6 C    0.034081    0.000000
   7 C    0.039781    0.000000
   8 C   -0.008533    0.000000
   9 C   -0.038570    0.000000
  10 C   -0.059530    0.000000
  11 C   -0.041340    0.000000
  12 C    0.196993    0.000000
  13 C   -0.037109    0.000000
  14 C   -0.043793    0.000000
  15 C    0.220972    0.000000
  16 H    0.038338    0.000000
  17 H    0.032895    0.000000
  18 H    0.039987    0.000000
  19 H    0.042345    0.000000
  20 H    0.031649    0.000000
  21 H    0.025767    0.000000
  22 H    0.011799    0.000000
  23 H    0.101084    0.000000
  24 H    0.142314    0.000000
  25 H    0.025209    0.000000
  26 H    0.028963    0.000000
  27 H    0.025395    0.000000
  28 H    0.031850    0.000000
  29 H    0.035287    0.000000
  30 H    0.045048    0.000000
  31 H    0.132166    0.000000

  TOTAL   0.000009    0.000000

-------
TIMINGS
-------

Total SCF time: 0 days 0 hours 0 min 10 sec 

Total time                  ....      10.668 sec
Sum of individual times     ....      10.570 sec  ( 99.1%)

SCF preparation             ....       0.185 sec  (  1.7%)
Fock matrix formation       ....       8.759 sec  ( 82.1%)
  Startup                   ....       0.020 sec  (  0.2% of F)
  Split-RI-J                ....       1.616 sec  ( 18.5% of F)
  XC integration            ....       6.769 sec  ( 77.3% of F)
    XC Preparation          ....       0.000 sec  (  0.0% of XC)
    Basis function eval.    ....       1.663 sec  ( 24.6% of XC)
    Density eval.           ....       1.766 sec  ( 26.1% of XC)
    XC-Functional eval.     ....       0.161 sec  (  2.4% of XC)
    XC-Potential eval.      ....       1.453 sec  ( 21.5% of XC)
Diagonalization             ....       0.000 sec  (  0.0%)
Density matrix formation    ....       0.077 sec  (  0.7%)
Total Energy calculation    ....       0.038 sec  (  0.4%)
Population analysis         ....       0.810 sec  (  7.6%)
Orbital Transformation      ....       0.056 sec  (  0.5%)
Orbital Orthonormalization  ....       0.000 sec  (  0.0%)
DIIS solution               ....       0.452 sec  (  4.2%)
SOSCF solution              ....       0.193 sec  (  1.8%)
Finished LeanSCF after  10.7 sec

[...]
 25:    532.42   0.002084   10.53  0.001222  ( 0.024785 -0.002677 -0.024497)
 26:    583.44   0.002809   14.20  0.001503  (-0.010788 -0.037142  0.002604)
 27:    598.89   0.000496    2.51  0.000258  ( 0.003096 -0.000588 -0.015761)
 28:    660.30   0.003566   18.02  0.001685  (-0.032598  0.005210 -0.024404)
 29:    677.71   0.001987   10.04  0.000915  ( 0.000656  0.005956 -0.029650)
 30:    708.81   0.003760   19.00  0.001655  ( 0.028582  0.015725  0.024314)
 31:    710.96   0.006996   35.35  0.003071  ( 0.043704  0.001122  0.034049)
 32:    750.67   0.003377   17.07  0.001404  (-0.035757 -0.000282 -0.011188)
 33:    755.70   0.017147   86.65  0.007081  (-0.072316 -0.031922 -0.028848)
 34:    783.03   0.008730   44.12  0.003479  (-0.026170 -0.022535 -0.047818)
 35:    796.36   0.003071   15.52  0.001203  ( 0.021822  0.000423  0.026961)
 36:    805.24   0.008006   40.46  0.003102  ( 0.042882 -0.005308 -0.035149)
 37:    831.26   0.015279   77.21  0.005736  ( 0.063964 -0.019625 -0.035485)
 38:    847.92   0.025344  128.08  0.009327  (-0.068554  0.032676  0.059666)
 39:    867.66   0.007353   37.16  0.002645  ( 0.047303 -0.015801 -0.012546)
 40:    906.48   0.002077   10.50  0.000715  ( 0.017796 -0.006873 -0.018738)
 41:    933.66   0.001518    7.67  0.000507  ( 0.021489 -0.005775 -0.003490)
 42:    950.95   0.000993    5.02  0.000326  (-0.012950  0.006425  0.010815)
 43:    960.03   0.000120    0.60  0.000039  ( 0.002624  0.001178  0.005530)
 44:    996.08   0.001267    6.40  0.000397  (-0.012364  0.011933  0.010086)
 45:   1020.06   0.000309    1.56  0.000094  (-0.007313  0.005696  0.002921)
 46:   1044.38   0.000689    3.48  0.000206  (-0.002026  0.013994  0.002417)
 47:   1064.75   0.000810    4.09  0.000237  ( 0.002742 -0.013533 -0.006831)
 48:   1079.56   0.005069   25.62  0.001465  (-0.015576  0.029438 -0.018869)
 49:   1090.69   0.002113   10.68  0.000605  (-0.002948  0.021794  0.010997)
 50:   1115.84   0.001789    9.04  0.000500  (-0.013870  0.006865  0.016151)
 51:   1121.26   0.002650   13.39  0.000737  (-0.018494  0.018407  0.007525)
 52:   1151.81   0.001659    8.39  0.000450  ( 0.012063 -0.017213  0.002791)
 53:   1169.47   0.009687   48.95  0.002585  (-0.004655  0.044334 -0.024450)
 54:   1185.67   0.000686    3.46  0.000180  (-0.003503  0.012678  0.002730)
 55:   1212.57   0.001821    9.20  0.000469  ( 0.016700  0.013358 -0.003365)
 56:   1229.22   0.013065   66.03  0.003317  ( 0.001795  0.054630 -0.018146)
 57:   1236.79   0.008179   41.34  0.002064  ( 0.007289 -0.044562  0.004986)
 58:   1263.44   0.004587   23.18  0.001133  ( 0.014239  0.021149 -0.021978)
 59:   1273.42   0.005855   29.59  0.001435  ( 0.022605  0.022224 -0.020732)
 60:   1279.81   0.004120   20.82  0.001005  ( 0.001178  0.028109 -0.014596)
 61:   1304.54   0.002952   14.92  0.000706  ( 0.016359  0.002373 -0.020809)
 62:   1334.62   0.002648   13.38  0.000619  ( 0.010510 -0.022489  0.001728)
 63:   1343.87   0.005082   25.68  0.001180  ( 0.027958 -0.011239 -0.016497)
 64:   1356.02   0.002468   12.47  0.000568  ( 0.015151  0.015460 -0.009968)
 65:   1359.87   0.001039    5.25  0.000238  (-0.008640  0.012793 -0.000325)
 66:   1373.39   0.001399    7.07  0.000318  ( 0.006590 -0.014595 -0.007837)
 67:   1387.03   0.000249    1.26  0.000056  ( 0.005776 -0.004761  0.000010)
 68:   1393.69   0.000068    0.34  0.000015  (-0.000069 -0.003505  0.001701)
 69:   1399.42   0.000571    2.89  0.000127  ( 0.002337 -0.009593  0.005464)
 70:   1419.80   0.012844   64.91  0.002823  ( 0.021297  0.040772 -0.026594)
 71:   1429.99   0.002334   11.80  0.000509  ( 0.008922  0.007185 -0.019445)
 72:   1450.36   0.001790    9.05  0.000385  ( 0.004235  0.009860 -0.016433)
 73:   1479.74   0.001858    9.39  0.000392  (-0.018791 -0.006076  0.001324)
 74:   1489.08   0.001753    8.86  0.000367  ( 0.003755 -0.010624 -0.015508)
 75:   1493.08   0.002359   11.92  0.000493  ( 0.004500 -0.006039  0.020886)
 76:   1495.81   0.001677    8.48  0.000350  ( 0.004956  0.017635 -0.003785)
 77:   1499.38   0.001500    7.58  0.000312  ( 0.007335  0.014443 -0.007054)
 78:   1718.60   0.040916  206.77  0.007430  (-0.027139  0.048825  0.065644)
 79:   1752.19   0.115457  583.47  0.020563  (-0.116392  0.074621 -0.038044)
 80:   2981.88   0.006043   30.54  0.000632  ( 0.003279  0.015190  0.019773)
 81:   2984.52   0.009342   47.21  0.000977  (-0.027229 -0.013032 -0.008097)
 82:   3000.79   0.004367   22.07  0.000454  ( 0.006802  0.019878 -0.003569)
 83:   3016.15   0.005299   26.78  0.000548  ( 0.018907 -0.013705  0.001700)
 84:   3020.94   0.003184   16.09  0.000329  (-0.002561 -0.015432  0.009175)
 85:   3034.79   0.004602   23.26  0.000473  (-0.007627 -0.010492  0.017464)
 86:   3039.00   0.001219    6.16  0.000125  ( 0.004290 -0.003155  0.009837)
 87:   3042.15   0.008848   44.72  0.000908  ( 0.025057  0.015683  0.005816)
 88:   3049.43   0.003281   16.58  0.000336  (-0.002059 -0.006368  0.017059)
 89:   3062.63   0.006301   31.84  0.000642  (-0.014507  0.010064 -0.018173)
 90:   3077.22   0.004807   24.29  0.000488  (-0.009618  0.000676 -0.019864)
 91:   3096.26   0.003393   17.15  0.000342  (-0.018464 -0.000870 -0.000595)
 92:   3105.25   0.002046   10.34  0.000206  (-0.009898  0.008820  0.005467)
 93:   3298.87   0.075823  383.18  0.007173  (-0.062972 -0.056225  0.006771)
 94:   3420.05   0.081085  409.77  0.007399  ( 0.074240  0.031486 -0.029928)
 95:   3593.43   0.006119   30.92  0.000531  ( 0.008483  0.017015 -0.013035)

* The epsilon (eps) is given for a Dirac delta lineshape.
** The dipole moment derivative (T) already includes vibrational overlap.

The first frequency considered to be a vibration is 6
The total number of vibrations considered is 90


--------------------------
THERMOCHEMISTRY AT 298.15K
--------------------------

Temperature         ...   298.15 K
Pressure            ...     1.00 atm
Total Mass          ...   244.31 AMU
Quasi RRHO          ...     True
Cut-Off Frequency   ...     1.00 cm^-1

Throughout the following assumptions are being made:
  (1) The electronic state is orbitally nondegenerate
  (2) There are no thermally accessible electronically excited states
  (3) Hindered rotations indicated by low frequency modes are not
      treated as such but are treated as vibrations and this may
      cause some error
  (4) All equations used are the standard statistical mechanics
      equations for an ideal gas
  (5) All vibrations are strictly harmonic

freq.      62.24  E(vib)   ...       0.51 
freq.      89.13  E(vib)   ...       0.47 
freq.     110.05  E(vib)   ...       0.45 
freq.     116.03  E(vib)   ...       0.44 
freq.     129.76  E(vib)   ...       0.43 
freq.     146.75  E(vib)   ...       0.41 
freq.     163.63  E(vib)   ...       0.39 
freq.     167.09  E(vib)   ...       0.39 
freq.     181.57  E(vib)   ...       0.37 
freq.     255.08  E(vib)   ...       0.30 
freq.     275.65  E(vib)   ...       0.28 
freq.     323.49  E(vib)   ...       0.25 
freq.     355.83  E(vib)   ...       0.22 
freq.     375.54  E(vib)   ...       0.21 
freq.     422.06  E(vib)   ...       0.18 
freq.     423.38  E(vib)   ...       0.18 
freq.     460.51  E(vib)   ...       0.16 
freq.     471.21  E(vib)   ...       0.15 
freq.     519.21  E(vib)   ...       0.13 
freq.     532.42  E(vib)   ...       0.13 
freq.     583.44  E(vib)   ...       0.11 
freq.     598.89  E(vib)   ...       0.10 
freq.     660.30  E(vib)   ...       0.08 
freq.     677.71  E(vib)   ...       0.08 
freq.     708.81  E(vib)   ...       0.07 
freq.     710.96  E(vib)   ...       0.07 
freq.     750.67  E(vib)   ...       0.06 
freq.     755.70  E(vib)   ...       0.06 
freq.     783.03  E(vib)   ...       0.05 
freq.     796.36  E(vib)   ...       0.05 
freq.     805.24  E(vib)   ...       0.05 
freq.     831.26  E(vib)   ...       0.04 
freq.     847.92  E(vib)   ...       0.04 
freq.     867.66  E(vib)   ...       0.04 
freq.     906.48  E(vib)   ...       0.03 
freq.     933.66  E(vib)   ...       0.03 
freq.     950.95  E(vib)   ...       0.03 
freq.     960.03  E(vib)   ...       0.03 
freq.     996.08  E(vib)   ...       0.02 
freq.    1020.06  E(vib)   ...       0.02 
freq.    1044.38  E(vib)   ...       0.02 
freq.    1064.75  E(vib)   ...       0.02 
freq.    1079.56  E(vib)   ...       0.02 
freq.    1090.69  E(vib)   ...       0.02 
freq.    1115.84  E(vib)   ...       0.01 
freq.    1121.26  E(vib)   ...       0.01 
freq.    1151.81  E(vib)   ...       0.01 
freq.    1169.47  E(vib)   ...       0.01 
freq.    1185.67  E(vib)   ...       0.01 
freq.    1212.57  E(vib)   ...       0.01 
freq.    1229.22  E(vib)   ...       0.01 
freq.    1236.79  E(vib)   ...       0.01 
freq.    1263.44  E(vib)   ...       0.01 
freq.    1273.42  E(vib)   ...       0.01 
freq.    1279.81  E(vib)   ...       0.01 
freq.    1304.54  E(vib)   ...       0.01 
freq.    1334.62  E(vib)   ...       0.01 
freq.    1343.87  E(vib)   ...       0.01 
freq.    1356.02  E(vib)   ...       0.01 
freq.    1359.87  E(vib)   ...       0.01 
freq.    1373.39  E(vib)   ...       0.01 
freq.    1387.03  E(vib)   ...       0.00 
freq.    1393.69  E(vib)   ...       0.00 
freq.    1399.42  E(vib)   ...       0.00 
freq.    1419.80  E(vib)   ...       0.00 
freq.    1429.99  E(vib)   ...       0.00 
freq.    1450.36  E(vib)   ...       0.00 
freq.    1479.74  E(vib)   ...       0.00 
freq.    1489.08  E(vib)   ...       0.00 
freq.    1493.08  E(vib)   ...       0.00 
freq.    1495.81  E(vib)   ...       0.00 
freq.    1499.38  E(vib)   ...       0.00 
freq.    1718.60  E(vib)   ...       0.00 
freq.    1752.19  E(vib)   ...       0.00 
freq.    2981.88  E(vib)   ...       0.00 
freq.    2984.52  E(vib)   ...       0.00 
freq.    3000.79  E(vib)   ...       0.00 
freq.    3016.15  E(vib)   ...       0.00 
freq.    3020.94  E(vib)   ...       0.00 
freq.    3034.79  E(vib)   ...       0.00 
freq.    3039.00  E(vib)   ...       0.00 
freq.    3042.15  E(vib)   ...       0.00 
freq.    3049.43  E(vib)   ...       0.00 
freq.    3062.63  E(vib)   ...       0.00 
freq.    3077.22  E(vib)   ...       0.00 
freq.    3096.26  E(vib)   ...       0.00 
freq.    3105.25  E(vib)   ...       0.00 
freq.    3298.87  E(vib)   ...       0.00 
freq.    3420.05  E(vib)   ...       0.00 
freq.    3593.43  E(vib)   ...       0.00 

------------
INNER ENERGY
------------

The inner energy is: U= E(el) + E(ZPE) + E(vib) + E(rot) + E(trans)
    E(el)   - is the total energy from the electronic structure calculation
              = E(kin-el) + E(nuc-el) + E(el-el) + E(nuc-nuc)
    E(ZPE)  - the the zero temperature vibrational energy from the frequency calculation
    E(vib)  - the the finite temperature correction to E(ZPE) due to population
              of excited vibrational states
    E(rot)  - is the rotational thermal energy
    E(trans)- is the translational thermal energy

Summary of contributions to the inner energy U:
Electronic energy                ...  -1123.75164908 Eh
Zero point energy                ...      0.26551674 Eh     166.61 kcal/mol
Thermal vibrational correction   ...      0.01174494 Eh       7.37 kcal/mol
Thermal rotational correction    ...      0.00141627 Eh       0.89 kcal/mol
Thermal translational correction ...      0.00141627 Eh       0.89 kcal/mol
-----------------------------------------------------------------------
Total thermal energy                  -1123.47155486 Eh


Summary of corrections to the electronic energy:
(perhaps to be used in another calculation)
Total thermal correction                  0.01457749 Eh       9.15 kcal/mol
Non-thermal (ZPE) correction              0.26551674 Eh     166.61 kcal/mol
-----------------------------------------------------------------------
Total correction                          0.28009422 Eh     175.76 kcal/mol


--------
ENTHALPY
--------

The enthalpy is H = U + kB*T
                kB is Boltzmann's constant
Total thermal energy              ...  -1123.47155486 Eh 
Thermal Enthalpy correction       ...      0.00094421 Eh       0.59 kcal/mol
-----------------------------------------------------------------------
Total Enthalpy                    ...  -1123.47061065 Eh


Note: Only C1 symmetry has been detected, increase convergence thresholds 
      if your molecule has a higher symmetry. Symmetry factor of 1.0 is   
      used for the rotational entropy correction. 
 

Note: Rotational entropy computed according to Herzberg 
Infrared and Raman Spectra, Chapter V,1, Van Nostrand Reinhold, 1945 
Point Group:  C1, Symmetry Number:   1  
Rotational constants in cm-1:     0.023028     0.014447     0.010258 

Vibrational entropy computed according to the QRRHO of S. Grimme
Chem.Eur.J. 2012 18 9955 using a reference frequency of 100.0 cm-1


-------
ENTROPY
-------

The entropy contributions are T*S = T*(S(el)+S(vib)+S(rot)+S(trans))
     S(el)   - electronic entropy
     S(vib)  - vibrational entropy
     S(rot)  - rotational entropy
     S(trans)- translational entropy
The entropies will be listed as multiplied by the temperature to get
units of energy

Electronic entropy                ...      0.00000000 Eh      0.00 kcal/mol
Vibrational entropy               ...      0.02012646 Eh     12.63 kcal/mol
Rotational entropy                ...      0.01545348 Eh      9.70 kcal/mol
Translational entropy             ...      0.02013635 Eh     12.64 kcal/mol
-----------------------------------------------------------------------
Final entropy term                ...      0.05571628 Eh     34.96 kcal/mol

In case the symmetry of your molecule has not been determined correctly
or in case you have a reason to use a different symmetry number we print 
out the resulting rotational entropy values for sn=1,12:

 non-linear molecules -----------------------------------
|  sn= 1 | S(rot)=       0.01545348 Eh      9.70 kcal/mol|
|  sn= 2 | S(rot)=       0.01479902 Eh      9.29 kcal/mol|
|  sn= 3 | S(rot)=       0.01441619 Eh      9.05 kcal/mol|
|  sn= 4 | S(rot)=       0.01414457 Eh      8.88 kcal/mol|
|  sn= 5 | S(rot)=       0.01393388 Eh      8.74 kcal/mol|
|  sn= 6 | S(rot)=       0.01376173 Eh      8.64 kcal/mol|
|  sn= 7 | S(rot)=       0.01361619 Eh      8.54 kcal/mol|
|  sn= 8 | S(rot)=       0.01349011 Eh      8.47 kcal/mol|
|  sn= 9 | S(rot)=       0.01337890 Eh      8.40 kcal/mol|
|  sn=10 | S(rot)=       0.01327942 Eh      8.33 kcal/mol|
|  sn=11 | S(rot)=       0.01318943 Eh      8.28 kcal/mol|
|  sn=12 | S(rot)=       0.01310728 Eh      8.22 kcal/mol|
 linear molecules ---------------------------------------
|  Dinfh | S(rot)=       0.00964984 Eh      6.06 kcal/mol|
|  Cinfv | S(rot)=       0.01030429 Eh      6.47 kcal/mol|
 --------------------------------------------------------


-------------------
GIBBS FREE ENERGY
-------------------

The Gibbs free energy is G = H - T*S

Total enthalpy                    ...  -1123.47061065 Eh 
Total entropy correction          ...     -0.05571628 Eh    -34.96 kcal/mol
-----------------------------------------------------------------------
Final Gibbs free energy         ...  -1123.52632694 Eh

For completeness - the Gibbs free energy minus the electronic energy
G-E(el)                           ...      0.22532215 Eh    141.39 kcal/mol


Maximum memory used throughout the entire PROP-calculation: 105.0 MB

--------------------------------
SUGGESTED CITATIONS FOR THIS RUN
--------------------------------

Below you find a list of papers that are relevant to this ORCA run
We neither can nor want to force you to cite these papers, but we appreciate if you do
You receive ORCA, which is the product of decades of hard work by many enthusiastic individuals, for free
The only thing we kindly ask in return is that you cite our papers,
We deeply appreciate it, if you show your appreciation for ORCA by not just citing the generic ORCA reference.

Please note that relegating all ORCA citations to the supporting information does *not* help us.
SI sections are not indexed - citations you put there will not count into any citation statistics
But we need these citations in order to attract the funding resources that allow us to do what we are doing

Therefore, if you are a happy ORCA user, please consider citing a few of the papers listed below in the main body of your paper

In addition to the list printed below, the program has created the file m1_00_Vitamin_B7-QM3_000-B97-3C-TZ.bibtex that contains the list in bibtex format
You can import this file easily into all common literature databanks and citation aid programs


List of essential papers. We consider these as the minimum necessary citations

  1. Neese,F.
     Software update: the ORCA program system, version 5.0
     WIRES Comput. Molec. Sci., 2022 12(1)e1606
     doi.org/10.1002/wcms.1606

List of papers to cite with high priority. The work reported in these papers was absolutely
necessary for this run to complete.
Our perspective: the developers of density functionals and basis sets usually get cited in chemistry papers
Good! But without the algorithms to do something with them, the functionals or basis sets would not do anything.
Hence, in our opinion, the algorithm design and method developments papers are equally worthy of getting cited

  1. Neese,F.
     An improvement of the resolution of the identity approximation for the formation of the Coulomb matrix
     J. Comp. Chem., 2003 24(14)1740-1747
     doi.org/10.1002/jcc.10318
  2. Bykov,D.; Petrenko,T.; Izsak,R.; Kossmann,S.; Becker,U.; Valeev,E.; Neese,F.
     Efficient implementation of the analytic second derivatives of Hartree-Fock and hybrid DFT energies: a detailed analysis of different approximations
     Molec. Phys., 2015 113 1961-1977
     doi.org/10.1080/00268976.2015.1025114
  3. Neese,F.
     The SHARK Integral Generation and Digestion System
     J. Comp. Chem., 2022  1-16
     doi.org/10.1002/jcc.26942
  4. Grimme,S.; Antony,J.; Ehrlich,S.; Krieg,H.
     A consistent and accurate ab initio parametrization of density functional dispersion correction (DFT-D) for the 94 elements H-Pu
     J. Chem. Phys., 2010 132 154104
     doi.org/10.1063/1.3382344
  5. Grimme,S.; Ehrlich,S.; Goerigk,L.
     Effect of the damping function in dispersion corrected density functional theory
     J. Comput. Chem., 2011 32(7)1456-1465
     doi.org/10.1002/jcc.21759

List of suggested additional citations. These are papers that are important in the 'surrounding' of 
of this run, or papers that preceded the highly important papers. If you like your results we are grateful for a citation.

  1. Neese,F.
     The ORCA program system
     WIRES Comput. Molec. Sci., 2012 2(1)73-78
     doi.org/10.1002/wcms.81
  2. Neese,F.
     Software update: the ORCA program system, version 4.0
     WIRES Comput. Molec. Sci., 2018 8(1)1-6
     doi.org/10.1002/wcms.1327
  3. Neese,F.; Wennmohs,F.; Becker,U.; Riplinger,C.
     The ORCA quantum chemistry program package
     J. Chem. Phys., 2020 152 Art. No. L224108
     doi.org/10.1063/5.0004608

List of optional additional citations

  1. Neese,F.
     Approximate second-order SCF convergence for spin unrestricted wavefunctions
     Chem. Phys. Lett., 2000 325(1-3)93-98
     doi.org/10.1016/s0009-2614(00)00662-x

Timings for individual modules:

Sum of individual times          ...      364.122 sec (=   6.069 min)
Startup calculation              ...       40.933 sec (=   0.682 min)  11.2 %
SCF iterations                   ...       90.072 sec (=   1.501 min)  24.7 %
Property integrals               ...       81.001 sec (=   1.350 min)  22.2 %
SCF Response                     ...       68.900 sec (=   1.148 min)  18.9 %
Property calculations            ...       33.030 sec (=   0.550 min)   9.1 %
SCF Gradient evaluation          ...       50.073 sec (=   0.835 min)  13.8 %
Geometry relaxation              ...        0.113 sec (=   0.002 min)   0.0 %
                             ****ORCA TERMINATED NORMALLY****
TOTAL RUN TIME: 0 days 0 hours 6 minutes 6 seconds 968 msec
