
                                 *****************
                                 * O   R   C   A *
                                 *****************

                                            #,                                       
                                            ###                                      
                                            ####                                     
                                            #####                                    
                                            ######                                   
                                           ########,                                 
                                     ,,################,,,,,                         
                               ,,#################################,,                 
                          ,,##########################################,,             
                       ,#########################################, ''#####,          
                    ,#############################################,,   '####,        
                  ,##################################################,,,,####,       
                ,###########''''           ''''###############################       
              ,#####''   ,,,,##########,,,,          '''####'''          '####       
            ,##' ,,,,###########################,,,                        '##       
           ' ,,###''''                  '''############,,,                           
         ,,##''                                '''############,,,,        ,,,,,,###''
      ,#''                                            '''#######################'''  
     '                                                          ''''####''''         
             ,#######,   #######,   ,#######,      ##                                
            ,#'     '#,  ##    ##  ,#'     '#,    #''#        ,####,   ,####,        
            ##       ##  ##   ,#'  ##            #'  '#       #'       #'  '#        
            ##       ##  #######   ##           ,######,      #####,   #    #        
            '#,     ,#'  ##    ##  '#,     ,#' ,#      #,     #,   #   #,  ,#        
             '#######'   ##     ##  '#######'  #'      '#     '####' # '####'        



                #########################################################
                #                        -***-                          #
                #          Department of theory and spectroscopy        #
                #                                                       #
                #                      Frank Neese                      #
                #                                                       #
                #     Directorship, Architecture, Infrastructure        #
                #                    SHARK, DRIVERS                     #
                #        Core code/Algorithms in most modules           #
                #                                                       #
                #        Max Planck Institute fuer Kohlenforschung      #
                #                Kaiser Wilhelm Platz 1                 #
                #                 D-45470 Muelheim/Ruhr                 #
                #                      Germany                          #
                #                                                       #
                #                  All rights reserved                  #
                #                        -***-                          #
                #########################################################


                         Program Version 6.0.1  -  RELEASE   -


 With contributions from (in alphabetic order):
[Max-Planck-Institut fuer Kohlenforschung]                               
  Daniel Aravena         : Magnetic Suceptibility                        
  Michael Atanasov       : Ab Initio Ligand Field Theory (pilot matlab implementation)
  Alexander A. Auer      : GIAO ZORA, VPT2 properties, NMR spectrum      
  Ute Becker             : All parallelization in ORCA, NUMFREQ, NUMCALC 
  Giovanni Bistoni       : ED, misc. LED, open-shell LED, HFLD           
  Martin Brehm           : Molecular dynamics                            
  Dmytro Bykov           : pre 5.0 version of the SCF Hessian            
  Marcos Casanova-Páez   : Triplet and SCS-CIS(D). UHF-(DLPNO)-IP/EA/STEOM-CCSD. UHF-CVS-IP/STEOM-CCSD   
  Vijay G. Chilkuri      : MRCI spin determinant printing, contributions to CSF-ICE 
  Pauline Colinet        : FMM embedding                                 
  Dipayan Datta          : RHF DLPNO-CCSD density                        
  Achintya Kumar Dutta   : EOM-CC, STEOM-CC                              
  Nicolas Foglia         : Exact transition moments, OPA infrastructure, MCD improvements    
  Dmitry Ganyushin       : Spin-Orbit,Spin-Spin,Magnetic field MRCI      
  Miquel Garcia-Rates    : C-PCM and meta-GGA Hessian, CCSD/C-PCM, Gaussian charge scheme 
  Tiago L. C. Gouveia    : GS-ROHF, GS-ROCIS                             
  Yang Guo               : DLPNO-NEVPT2, F12-NEVPT2, CIM, IAO-localization        
  Andreas Hansen         : Spin unrestricted coupled pair/coupled cluster methods 
  Ingolf Harden          : AUTO-CI MPn and infrastructure                
  Benjamin Helmich-Paris : MC-RPA, TRAH-(SCF,CASSCF), AVAS, COSX integrals, SCF dyn. polar. 
  Lee Huntington         : MR-EOM, pCC                                   
  Robert Izsak           : Overlap fitted RIJCOSX, COSX-SCS-MP3, EOM     
  Riya Kayal             : Wick's Theorem for AUTO-CI, AUTO-CI UHF-CCSDT 
  Emily Kempfer          : AUTO-CI, RHF CISDT and CCSDT                  
  Christian Kollmar      : KDIIS, OOCD, Brueckner-CCSD(T), CCSD density, CASPT2, CASPT2-K, improved NEVPT2 
  Axel Koslowski         : Symmetry handling                             
  Simone Kossmann        : meta-GGA functionals, TD-DFT gradient, OOMP2, (MP2 Hessian; deprecated post 5.0) 
  Lucas Lang             : DCDCAS                                        
  Marvin Lechner         : AUTO-CI (C++ implementation), FIC-MRCC        
  Spencer Leger          : CASSCF response                               
  Dagmar Lenk            : GEPOL surface, SMD, ORCA-2-JSON               
  Dimitrios Liakos       : Extrapolation schemes; Compound Job, initial MDCI parallelization 
  Dimitrios Manganas     : Further ROCIS development; embedding schemes. LFT, Crystal Embedding 
  Dimitrios Pantazis     : SARC Basis sets                               
  Anastasios Papadopoulos: AUTO-CI, single reference methods and gradients 
  Taras Petrenko         : pre 6.0 DFT Hessian and TD-DFT gradient, (ASA, deprecated), ECA, 1-Electron XAS/XES, NRVS 
  Peter Pinski           : DLPNO-MP2, DLPNO-MP2 Gradient                 
  Christoph Reimann      : Effective Core Potentials                     
  Marius Retegan         : Local ZFS, SOC                                
  Christoph Riplinger    : Optimizer, TS searches, QM/MM, DLPNO-CCSD(T), (RO)-DLPNO pert. Triples 
  Michael Roemelt        : Original ROCIS implementation                 
  Masaaki Saitow         : Open-shell DLPNO-CCSD energy and density      
  Barbara Sandhoefer     : DKH picture change effects                    
  Kantharuban Sivalingam : CASSCF convergence/infrastructure, NEVPT2 and variants, FIC-MRCI 
  Bernardo de Souza      : ESD, SOC TD-DFT                               
  Georgi L. Stoychev     : AutoAux, RI-MP2 NMR, DLPNO-MP2 response, X2C  
  Van Anh Tran           : RI-MP2 g-tensors                              
  Willem Van den Heuvel  : Paramagnetic NMR                              
  Zikuan Wang            : NOTCH, Electric field optimization            
  Frank Wennmohs         : Technical directorship and infrastructure     
  Hang Xu                : AUTO-CI-Response properties                   
                                                                         
[FACCTs GmbH]                                                            
  Markus Bursch, Miquel Garcia-Rates, Christoph Riplinger, Bernardo de Souza, Georgi L. Stoychev 
                                                                 
  APM, Basis sets (HGBS, AHGBS, def-TZVP (Ac-Lr), def2-XVPD (La-Lu)), CI-OPT, improved COSX, DLPNO-Multilevel,           
  DOCKER, DRACO, updates on ESD, GOAT, IRC, LR-CPCM, MBIS, meta-GGA TD-DFT gradient, ML-optimized integration grids, 
  MM, NACMEs, nearIR, NEB, NEB-TS, NL-DFT gradient (VV10), 2- and 3-layer-ONIOM, interface openCOSMO-RS, QMMM,   
  Crystal-QMMM, SF, symmetry and pop. for TD-DFT, r2SCAN hybrids, SOLVATOR                                   
                                                                         
[Other institutions]                                                     
  V. Asgeirsson          : NEB                                           
  Christoph Bannwarth    : sTDA-DFT, sTD-DFT, PBEh-3c, B97-3c, D3        
  Sebastian Ehlert       : rSCAN, r2SCAN, r2SCAN-3c, D4, dhf basis sets  
  Marvin Friede          : D4 for Fr, Ra, Ac-Lr                          
  Lars Goerigk           : TD-DFT with DH, B97 family of functionals     
  Stefan Grimme          : VdW corrections, initial TS optimization, DFT functionals, gCP, sTDA/sTD-DF 
  Waldemar Hujo          : DFT-NL                                        
  H. Jonsson             : NEB                                           
  Holger Kruse           : gCP                                           
  Marcel Mueller         : wB97X-3c, vDZP basis set                      
  Hagen Neugebauer       : wr2SCAN                                       
  Tobias Risthaus        : range-separated hybrid DFT                    
  Lukas Wittmann         : regularized MP2, r2SCAN double-hybrids, wr2SCAN        
                                                                         
We gratefully acknowledge several colleagues who have allowed us to      
interface, adapt or use parts of their codes:                            
  Ed Valeev, F. Pavosevic, A. Kumar             : LibInt (2-el integral package), F12 methods 
  Garnet Chan, S. Sharma, J. Yang, R. Olivares  : DMRG                   
  Ulf Ekstrom                                   : XCFun DFT Library      
  Mihaly Kallay                                 : mrcc  (arbitrary order and MRCC methods)
  Frank Weinhold                                : gennbo (NPA and NBO analysis)           
  Simon Mueller                                 : openCOSMO-RS                            
  Christopher J. Cramer and Donald G. Truhlar   : smd solvation model                     
  S Lehtola, MJT Oliveira, MAL Marques          : LibXC Library                           
  Liviu Ungur et al                             : ANISO software                          


 Your calculation uses the libint2 library for the computation of 2-el integrals
 For citations please refer to: http://libint.valeyev.net

 Your ORCA version has been built with support for libXC version: 6.2.2
 For citations please refer to: https://libxc.gitlab.io

 This ORCA versions uses:
   CBLAS   interface :  Fast vector & matrix operations
   LAPACKE interface :  Fast linear algebra routines
   SCALAPACK package :  Parallel linear algebra routines
   Shared memory     :  Shared parallel matrices
   BLAS/LAPACK       :  OpenBLAS 0.3.27  USE64BITINT DYNAMIC_ARCH NO_AFFINITY Zen SINGLE_THREADED
        Core in use  :  Zen
   Copyright (c) 2011-2014, The OpenBLAS Project


NOTE: MaxCore=6000 MB was set to SCF,MP2,MDCI,CIPSI,MRCI and CIS
      => If you want to overwrite this, your respective input block should be placed after the MaxCore statement
Your calculation utilizes the atom-pairwise dispersion correction
with the Becke-Johnson damping scheme (D3BJ)


Your calculation employs the composite approach B97-3c by Grimme and coworkers.
For the correct reference, please check the publication list of the Grimme group:
http://www.thch.uni-bonn.de/tc/index.php?section=publikationen&subsection=grimme#2017
   

XCFun DFT library Copyright 2009-2010 Ulf Ekstrom and contributors.
See http://admol.org/xcfun for more information.
This is free software; see the source code for copying conditions.
There is ABSOLUTELY NO WARRANTY; not even for MERCHANTABILITY or FITNESS FOR A PARTICULAR PURPOSE.
For details see the documentation.
Scientific users of this library should cite U. Ekstrom, L. Visscher, R. Bast, A. J. Thorvaldsen and K. Ruud;
J.Chem.Theor.Comp. 2010, DOI: 10.1021/ct100117s
XCFun Version 0.99 

================================================================================

----- Orbital basis set information -----
Your calculation utilizes the basis: def2-mTZVP
----- AuxJ basis set information -----
Your calculation utilizes the basis: def2-mTZVP/J
================================================================================
                                        WARNINGS
                       Please study these warnings very carefully!
================================================================================


WARNING: Geometry Optimization
  ===> : Switching off AutoStart
         For restart on a previous wavefunction, please use MOREAD

================================================================================
                                       INPUT FILE
================================================================================
NAME = m1_00_Vitamin_B6-GFN2_000-B97-3C-TZ.inp
|  1> %pal nprocs 16 end
|  2> %MaxCore 6000
|  3> # put your comments here
|  4> ! B97-3C  OPT  FREQ DEFGRID3 NOTRAH
|  5> %scf MaxIter 800 end
|  6> %output
|  7> Print [P_Hirshfeld] 1
|  8> end
|  9> %geom
| 10> MaxIter 3000
| 11>  TolE 1e-6 #TolE 5e-6 Energy change (a.u.)
| 12>  TolRMSG 3e-5 #TolRMSG 1e-4 RMS gradient (a.u.)
| 13>  TolMaxG 1e-4 #TolMaxG 3e-3 Max. element of gradient (a.u.)
| 14>  TolRMSD 2e-3 #TolRMSD 2e-3 RMS displacement (a.u.)
| 15>  TolMaxD 4e-3 #TolMaxD 4e-3 Max. displacement (a.u.)
| 16> end
| 17> * xyz 0 1
| 18>  O 2.95980962564206 -1.24656617377100 -0.23269946834512
| 19>  O 2.31382459152563 -1.40342257544404 -2.83066559910004
| 20>  O -1.58721898277304 -0.10567273547712 -2.87075390891799
| 21>  N 0.06802379559360 0.03835976548096 1.44705295526403
| 22>  C 0.68000737464130 -1.09399574771472 -1.02000560194600
| 23>  C -0.63088474576615 -0.71157591931810 -0.71252691073880
| 24>  C 1.66604498836649 -0.90183496070649 -0.04968172878287
| 25>  C 1.30675380264568 -0.32618181633767 1.18427301020520
| 26>  C 1.01944640283194 -1.73897749023849 -2.34738125963883
| 27>  C -1.76202987859662 -0.87822805619178 -1.69718699424880
| 28>  C -0.86732410108434 -0.14554029815408 0.53063634778802
| 29>  C 2.34414218181562 -0.11936061762401 2.23802815617063
| 30>  H 1.03255505515137 -2.82867071257377 -2.22522919384175
| 31>  H 0.26481624522953 -1.48342586301963 -3.09468116704451
| 32>  H -1.82679640171301 -1.91583340623351 -2.03650994759196
| 33>  H -2.70899862704198 -0.61749683892576 -1.20687694740252
| 34>  H -1.86231243955430 0.17278767056248 0.81376832902743
| 35>  H 3.15044718247636 0.50079187160761 1.85064861556764
| 36>  H 1.89321401687278 0.35476376180481 3.10361829553399
| 37>  H 2.77621584796033 -1.07665799710865 2.52384773445348
| 38>  H 3.07728257451909 -1.53985998345901 -1.15606208125627
| 39>  H 2.30473918170316 -0.48621385559141 -3.12512689962942
| 40>  H -1.58102569044564 0.82570197843335 -2.62421073552560
| 41> *
| 42> 
| 43> 
| 44> 
| 45> 
| 46>                          ****END OF INPUT****
================================================================================

                       *****************************
                       * Geometry Optimization Run *
                       *****************************

Geometry optimization settings:
Update method            Update   .... BFGS
Choice of coordinates    CoordSys .... (2022) Redundant Internals
Initial Hessian          InHess   .... Almloef's Model
Max. no of cycles        MaxIter  .... 3000

Convergence Tolerances:
Energy Change            TolE     ....  1.0000e-06 Eh
Max. Gradient            TolMAXG  ....  1.0000e-04 Eh/bohr
RMS Gradient             TolRMSG  ....  3.0000e-05 Eh/bohr
Max. Displacement        TolMAXD  ....  4.0000e-03 bohr
RMS Displacement         TolRMSD  ....  2.0000e-03 bohr
Strict Convergence                .... False

------------------------------------------------------------------------------
                        ORCA OPTIMIZATION COORDINATE SETUP
------------------------------------------------------------------------------

The optimization will be done in redundant internal coordinates (2022)
Making redundant internal coordinates   ...  (2022 redundants) done
Evaluating the initial hessian          ...  (Almloef) done
Evaluating the coordinates              ...  done
Calculating the B-matrix                .... done
Calculating the G-matrix                .... done
Diagonalizing the G-matrix              .... done
Small eigenvalue found = 2.876e-02
The first mode is                       ....   41
The number of degrees of freedom        ....   63

    -----------------------------------------------------------------
                    Redundant Internal Coordinates


    -----------------------------------------------------------------
         Definition                    Initial Value    Approx d2E/dq
    -----------------------------------------------------------------
      1. B(C   5,C   4)                  1.3997         0.602872   
      2. B(C   6,O   0)                  1.3514         0.644956   
      3. B(C   6,C   4)                  1.3967         0.609643   
      4. B(C   7,C   6)                  1.4082         0.584325   
      5. B(C   7,N   3)                  1.3177         0.729773   
      6. B(C   8,C   4)                  1.5143         0.395734   
      7. B(C   8,O   1)                  1.4218         0.497859   
      8. B(C   9,C   5)                  1.5089         0.403665   
      9. B(C   9,O   2)                  1.4159         0.508882   
     10. B(C  10,C   5)                  1.3863         0.633408   
     11. B(C  10,N   3)                  1.3223         0.717570   
     12. B(C  11,C   7)                  1.4931         0.427807   
     13. B(H  12,C   8)                  1.0966         0.351478   
     14. B(H  13,C   8)                  1.0924         0.357003   
     15. B(H  14,C   9)                  1.0936         0.355370   
     16. B(H  15,C   9)                  1.0978         0.349946   
     17. B(H  16,C  10)                  1.0824         0.370353   
     18. B(H  17,C  11)                  1.0885         0.362122   
     19. B(H  18,C  11)                  1.0851         0.366681   
     20. B(H  19,C  11)                  1.0885         0.362110   
     21. B(H  20,O   1)                  1.8455         0.020102   
     22. B(H  20,O   0)                  0.9759         0.490419   
     23. B(H  21,O   1)                  0.9634         0.513578   
     24. B(H  22,O   2)                  0.9635         0.513364   
     25. A(C   6,O   0,H  20)          108.6657         0.368908   
     26. A(C   8,O   1,H  21)          108.6634         0.355751   
     27. A(C   9,O   2,H  22)          108.4308         0.357051   
     28. A(C   7,N   3,C  10)          119.2271         0.453012   
     29. A(C   5,C   4,C   8)          121.2550         0.398753   
     30. A(C   6,C   4,C   8)          120.6187         0.399537   
     31. A(C   5,C   4,C   6)          118.0978         0.430580   
     32. A(C   4,C   5,C  10)          117.9229         0.433549   
     33. A(C   4,C   5,C   9)          121.9071         0.400147   
     34. A(C   9,C   5,C  10)          120.1612         0.403646   
     35. A(O   0,C   6,C   7)          117.8537         0.429696   
     36. A(C   4,C   6,C   7)          119.0044         0.428173   
     37. A(O   0,C   6,C   4)          123.1416         0.432983   
     38. A(N   3,C   7,C  11)          118.2993         0.415486   
     39. A(N   3,C   7,C   6)          121.8481         0.439358   
     40. A(C   6,C   7,C  11)          119.8524         0.402043   
     41. A(H  12,C   8,H  13)          108.4778         0.289343   
     42. A(C   4,C   8,H  13)          110.1923         0.326943   
     43. A(O   1,C   8,H  13)          109.9476         0.337571   
     44. A(C   4,C   8,H  12)          109.1645         0.326104   
     45. A(O   1,C   8,H  12)          105.1590         0.336695   
     46. A(O   1,C   8,C   4)          113.6712         0.383181   
     47. A(H  14,C   9,H  15)          108.2305         0.288938   
     48. A(C   5,C   9,H  15)          109.2060         0.326936   
     49. A(O   2,C   9,H  15)          110.3109         0.337680   
     50. A(C   5,C   9,H  14)          110.5891         0.327766   
     51. A(O   2,C   9,H  14)          105.5355         0.338547   
     52. A(O   2,C   9,C   5)          112.8346         0.385973   
     53. A(N   3,C  10,C   5)          123.8925         0.444454   
     54. A(C   5,C  10,H  16)          120.7612         0.355881   
     55. A(N   3,C  10,H  16)          115.3448         0.361265   
     56. A(H  17,C  11,H  18)          110.0474         0.291926   
     57. A(C   7,C  11,H  18)          109.5595         0.332647   
     58. A(C   7,C  11,H  17)          110.0246         0.331958   
     59. A(H  18,C  11,H  19)          109.8636         0.291924   
     60. A(H  17,C  11,H  19)          107.4866         0.291350   
     61. A(C   7,C  11,H  19)          109.8337         0.331956   
     62. D(C  10,C   5,C   4,C   6)      0.9741         0.025069   
     63. D(C   9,C   5,C   4,C   8)     -2.0312         0.025069   
     64. D(C   9,C   5,C   4,C   6)    179.8982         0.025069   
     65. D(C  10,C   5,C   4,C   8)    179.0447         0.025069   
     66. D(O   0,C   6,C   4,C   5)    179.2876         0.025667   
     67. D(C   4,C   6,O   0,H  20)      6.1866         0.030703   
     68. D(C   7,C   6,C   4,C   5)     -0.4997         0.025667   
     69. D(O   0,C   6,C   4,C   8)      1.2042         0.025667   
     70. D(C   7,C   6,O   0,H  20)   -174.0238         0.030703   
     71. D(C   7,C   6,C   4,C   8)   -178.5832         0.025667   
     72. D(N   3,C   7,C   6,C   4)     -0.1531         0.023474   
     73. D(N   3,C   7,C   6,O   0)   -179.9517         0.023474   
     74. D(C  11,C   7,N   3,C  10)   -179.5041         0.040215   
     75. D(C  11,C   7,C   6,O   0)     -0.1500         0.023474   
     76. D(C   6,C   7,N   3,C  10)      0.3006         0.040215   
     77. D(C  11,C   7,C   6,C   4)    179.6486         0.023474   
     78. D(H  13,C   8,C   4,C   5)     22.7850         0.011634   
     79. D(H  12,C   8,C   4,C   5)    -96.2486         0.011634   
     80. D(O   1,C   8,C   4,C   6)    -35.2671         0.011634   
     81. D(O   1,C   8,C   4,C   5)    146.7107         0.011634   
     82. D(H  12,C   8,O   1,H  21)    168.6546         0.021252   
     83. D(H  12,C   8,C   4,C   6)     81.7737         0.011634   
     84. D(C   4,C   8,O   1,H  21)    -71.9966         0.021252   
     85. D(H  13,C   8,O   1,H  21)     52.0616         0.021252   
     86. D(H  14,C   9,C   5,C   4)     54.8260         0.012083   
     87. D(O   2,C   9,C   5,C  10)    115.7818         0.012083   
     88. D(O   2,C   9,C   5,C   4)    -63.1187         0.012083   
     89. D(H  15,C   9,O   2,H  22)     59.7601         0.020497   
     90. D(H  14,C   9,O   2,H  22)    176.4476         0.020497   
     91. D(H  14,C   9,C   5,C  10)   -126.2736         0.012083   
     92. D(C   5,C   9,O   2,H  22)    -62.6824         0.020497   
     93. D(H  15,C   9,C   5,C   4)    173.8218         0.012083   
     94. D(H  16,C  10,C   5,C   9)      0.6511         0.027837   
     95. D(H  16,C  10,C   5,C   4)    179.5947         0.027837   
     96. D(N   3,C  10,C   5,C   9)   -179.8243         0.027837   
     97. D(N   3,C  10,C   5,C   4)     -0.8807         0.027837   
     98. D(H  16,C  10,N   3,C   7)    179.7786         0.038748   
     99. D(C   5,C  10,N   3,C   7)      0.2306         0.038748   
    100. D(H  19,C  11,C   7,N   3)    119.1342         0.013520   
    101. D(H  18,C  11,C   7,C   6)    178.5634         0.013520   
    102. D(H  18,C  11,C   7,N   3)     -1.6279         0.013520   
    103. D(H  17,C  11,C   7,C   6)     57.4533         0.013520   
    104. D(H  17,C  11,C   7,N   3)   -122.7380         0.013520   
    -----------------------------------------------------------------

Number of atoms                         .... 23
Number of degrees of freedom            .... 104


         *************************************************************
         *                GEOMETRY OPTIMIZATION CYCLE   1            *
         *************************************************************
---------------------------------
CARTESIAN COORDINATES (ANGSTROEM)
---------------------------------
  O      2.959810   -1.246566   -0.232699
  O      2.313825   -1.403423   -2.830666
  O     -1.587219   -0.105673   -2.870754
  N      0.068024    0.038360    1.447053
  C      0.680007   -1.093996   -1.020006
  C     -0.630885   -0.711576   -0.712527
  C      1.666045   -0.901835   -0.049682
  C      1.306754   -0.326182    1.184273
  C      1.019446   -1.738977   -2.347381
  C     -1.762030   -0.878228   -1.697187
  C     -0.867324   -0.145540    0.530636
  C      2.344142   -0.119361    2.238028
  H      1.032555   -2.828671   -2.225229
  H      0.264816   -1.483426   -3.094681
  H     -1.826796   -1.915833   -2.036510
  H     -2.708999   -0.617497   -1.206877
  H     -1.862312    0.172788    0.813768
  H      3.150447    0.500792    1.850649
  H      1.893214    0.354764    3.103618
  H      2.776216   -1.076658    2.523848
  H      3.077283   -1.539860   -1.156062
  H      2.304739   -0.486214   -3.125127
  H     -1.581026    0.825702   -2.624211

----------------------------
CARTESIAN COORDINATES (A.U.)
----------------------------
  NO LB      ZA    FRAG     MASS         X           Y           Z
   0 O     8.0000    0    15.999    5.593230   -2.355669   -0.439738
   1 O     8.0000    0    15.999    4.372495   -2.652084   -5.349183
   2 O     8.0000    0    15.999   -2.999409   -0.199693   -5.424939
   3 N     7.0000    0    14.007    0.128546    0.072489    2.734534
   4 C     6.0000    0    12.011    1.285028   -2.067352   -1.927531
   5 C     6.0000    0    12.011   -1.192199   -1.344684   -1.346481
   6 C     6.0000    0    12.011    3.148369   -1.704221   -0.093885
   7 C     6.0000    0    12.011    2.469407   -0.616394    2.237952
   8 C     6.0000    0    12.011    1.926475   -3.286191   -4.435908
   9 C     6.0000    0    12.011   -3.329754   -1.659611   -3.207219
  10 C     6.0000    0    12.011   -1.639005   -0.275031    1.002757
  11 C     6.0000    0    12.011    4.429787   -0.225559    4.229260
  12 H     1.0000    0     1.008    1.951246   -5.345413   -4.205074
  13 H     1.0000    0     1.008    0.500430   -2.803269   -5.848100
  14 H     1.0000    0     1.008   -3.452145   -3.620400   -3.848446
  15 H     1.0000    0     1.008   -5.119266   -1.166900   -2.280667
  16 H     1.0000    0     1.008   -3.519260    0.326521    1.537799
  17 H     1.0000    0     1.008    5.953482    0.946359    3.497219
  18 H     1.0000    0     1.008    3.577656    0.670406    5.864989
  19 H     1.0000    0     1.008    5.246288   -2.034589    4.769381
  20 H     1.0000    0     1.008    5.815221   -2.909914   -2.184641
  21 H     1.0000    0     1.008    4.355326   -0.918811   -5.905634
  22 H     1.0000    0     1.008   -2.987706    1.560351   -4.959040

--------------------------------
INTERNAL COORDINATES (ANGSTROEM)
--------------------------------
 O      0   0   0     0.000000000000     0.00000000     0.00000000
 O      1   0   0     2.681665268373     0.00000000     0.00000000
 O      2   1   0     4.111435599434   102.68237067     0.00000000
 N      1   2   3     3.582600753761   106.30608321   358.78343785
 C      1   2   3     2.416738915684    57.37407849    13.24613799
 C      5   1   2     1.399723623450   146.01212769   197.00105901
 C      1   2   3     1.351355630069    85.15292869     4.55656830
 C      4   1   2     1.317723755106    17.91599070   195.70528143
 C      2   1   3     1.421821278845    84.47994976   326.21503610
 C      3   2   1     1.415860118822    86.37862228   318.34509392
 C      4   1   2     1.322314001923   101.31128070    15.92616379
 C      8   4   1     1.493100654719   118.29926131   180.24775157
 H      9   2   1     1.096596681897   105.15897229   271.64123964
 H      9   2   1     1.092350887099   109.94763440   155.04828865
 H     10   3   2     1.093599392656   105.53547229   283.43137136
 H     10   3   2     1.097786190580   110.31087482   166.74388017
 H     11   4   1     1.082357708042   115.34478140   179.85646322
 H     12   8   4     1.088475894298   110.02462834   237.26196740
 H     12   8   4     1.085069779540   109.55946669   358.37207981
 H     12   8   4     1.088484614992   109.83372613   119.13423614
 H      1   2   3     0.975919908313    25.15009145   164.00970074
 H      2   1   3     0.963359661785   104.04609573    74.10735854
 H      3   2   1     0.963473274631   107.24954265    66.52850723

---------------------------
INTERNAL COORDINATES (A.U.)
---------------------------
 O      0   0   0     0.000000000000     0.00000000     0.00000000
 O      1   0   0     5.067612940073     0.00000000     0.00000000
 O      2   1   0     7.769487300185   102.68237067     0.00000000
 N      1   2   3     6.770134271789   106.30608321   358.78343785
 C      1   2   3     4.566974687832    57.37407849    13.24613799
 C      5   1   2     2.645094311500   146.01212769   197.00105901
 C      1   2   3     2.553692050364    85.15292869     4.55656830
 C      4   1   2     2.490137017313    17.91599070   195.70528143
 C      2   1   3     2.686852828399    84.47994976   326.21503610
 C      3   2   1     2.675587868514    86.37862228   318.34509392
 C      4   1   2     2.498811326685   101.31128070    15.92616379
 C      8   4   1     2.821551327798   118.29926131   180.24775157
 H      9   2   1     2.072267408152   105.15897229   271.64123964
 H      9   2   1     2.064244018763   109.94763440   155.04828865
 H     10   3   2     2.066603352342   105.53547229   283.43137136
 H     10   3   2     2.074515253796   110.31087482   166.74388017
 H     11   4   1     2.045359647139   115.34478140   179.85646322
 H     12   8   4     2.056921343599   110.02462834   237.26196740
 H     12   8   4     2.050484719525   109.55946669   358.37207981
 H     12   8   4     2.056937823321   109.83372613   119.13423614
 H      1   2   3     1.844221355353    25.15009145   164.00970074
 H      2   1   3     1.820485929241   104.04609573    74.10735854
 H      3   2   1     1.820700626405   107.24954265    66.52850723

---------------------
BASIS SET INFORMATION
---------------------
There are 4 groups of distinct atoms

 Group   1 Type O   : 11s6p2d contracted to 5s3p2d pattern {62111/411/11}
 Group   2 Type N   : 11s6p1d contracted to 5s3p1d pattern {62111/411/1}
 Group   3 Type C   : 11s6p1d contracted to 5s3p1d pattern {62111/411/1}
 Group   4 Type H   : 5s contracted to 3s pattern {311}

Atom   0O    basis set group =>   1
Atom   1O    basis set group =>   1
Atom   2O    basis set group =>   1
Atom   3N    basis set group =>   2
Atom   4C    basis set group =>   3
Atom   5C    basis set group =>   3
Atom   6C    basis set group =>   3
Atom   7C    basis set group =>   3
Atom   8C    basis set group =>   3
Atom   9C    basis set group =>   3
Atom  10C    basis set group =>   3
Atom  11C    basis set group =>   3
Atom  12H    basis set group =>   4
Atom  13H    basis set group =>   4
Atom  14H    basis set group =>   4
Atom  15H    basis set group =>   4
Atom  16H    basis set group =>   4
Atom  17H    basis set group =>   4
Atom  18H    basis set group =>   4
Atom  19H    basis set group =>   4
Atom  20H    basis set group =>   4
Atom  21H    basis set group =>   4
Atom  22H    basis set group =>   4
---------------------------------
AUXILIARY/J BASIS SET INFORMATION
---------------------------------
There are 4 groups of distinct atoms

 Group   1 Type O   : 8s3p3d contracted to 6s3p3d pattern {311111/111/111}
 Group   2 Type N   : 8s3p3d contracted to 6s3p3d pattern {311111/111/111}
 Group   3 Type C   : 8s3p3d contracted to 6s3p3d pattern {311111/111/111}
 Group   4 Type H   : 5s2p contracted to 3s1p pattern {311/2}

Atom   0O    basis set group =>   1
Atom   1O    basis set group =>   1
Atom   2O    basis set group =>   1
Atom   3N    basis set group =>   2
Atom   4C    basis set group =>   3
Atom   5C    basis set group =>   3
Atom   6C    basis set group =>   3
Atom   7C    basis set group =>   3
Atom   8C    basis set group =>   3
Atom   9C    basis set group =>   3
Atom  10C    basis set group =>   3
Atom  11C    basis set group =>   3
Atom  12H    basis set group =>   4
Atom  13H    basis set group =>   4
Atom  14H    basis set group =>   4
Atom  15H    basis set group =>   4
Atom  16H    basis set group =>   4
Atom  17H    basis set group =>   4
Atom  18H    basis set group =>   4
Atom  19H    basis set group =>   4
Atom  20H    basis set group =>   4
Atom  21H    basis set group =>   4
Atom  22H    basis set group =>   4


           ************************************************************
           *        Program running with 16 parallel MPI-processes    *
           *              working on a common directory               *
           ************************************************************
------------------------------------------------------------------------------
                             ORCA STARTUP CALCULATIONS
                           -- RI-GTO INTEGRALS CHOSEN --
------------------------------------------------------------------------------
------------------------------------------------------------------------------
                   ___                                                        
                  /   \      - P O W E R E D   B Y -                         
                 /     \                                                     
                 |  |  |   _    _      __       _____    __    __             
                 |  |  |  | |  | |    /  \     |  _  \  |  |  /  |          
                  \  \/   | |  | |   /    \    | | | |  |  | /  /          
                 / \  \   | |__| |  /  /\  \   | |_| |  |  |/  /          
                |  |  |   |  __  | /  /__\  \  |    /   |      \           
                |  |  |   | |  | | |   __   |  |    \   |  |\   \          
                \     /   | |  | | |  |  |  |  | |\  \  |  | \   \       
                 \___/    |_|  |_| |__|  |__|  |_| \__\ |__|  \__/        
                                                                              
                      - O R C A' S   B I G   F R I E N D -                    
                                      &                                       
                       - I N T E G R A L  F E E D E R -                       
                                                                              
 v1 FN, 2020, v2 2021, v3 2022-2024                                           
------------------------------------------------------------------------------


----------------------
SHARK INTEGRAL PACKAGE
----------------------

Number of atoms                             ...     23
Number of basis functions                   ...    276
Number of shells                            ...    144
Maximum angular momentum                    ...      2
Integral batch strategy                     ... SHARK/LIBINT Hybrid
RI-J (if used) integral strategy            ... SPLIT-RIJ (Revised 2003 algorithm where possible)
Printlevel                                  ...      1
Contraction scheme used                     ... SEGMENTED contraction
Prescreening option                         ... SCHWARTZ
   Thresh                                   ... 2.500e-11
   Tcut                                     ... 2.500e-12
   Tpresel                                  ... 2.500e-12 
Coulomb Range Separation                    ... NOT USED
Exchange Range Separation                   ... NOT USED
Multipole approximations                    ... NOT USED
Finite Nucleus Model                        ... NOT USED
CABS basis                                  ... NOT available
Auxiliary Coulomb fitting basis             ... AVAILABLE
   # of basis functions in Aux-J            ...    426
   # of shells in Aux-J                     ...    188
   Maximum angular momentum in Aux-J        ...      2
Auxiliary J/K fitting basis                 ... NOT available
Auxiliary Correlation fitting basis         ... NOT available
Auxiliary 'external' fitting basis          ... NOT available

Checking pre-screening integrals            ... done (  0.0 sec) Dimension = 144
Check shell pair data                       ... done (  0.0 sec)
Shell pair information
Shell pair cut-off parameter TPreSel        ...   2.5e-12
Total number of shell pairs                 ...     10440
Shell pairs after pre-screening             ...      9059
Total number of primitive shell pairs       ...     37972
Primitive shell pairs kept                  ...     22474
          la=0 lb=0:   3564 shell pairs
          la=1 lb=0:   3036 shell pairs
          la=1 lb=1:    642 shell pairs
          la=2 lb=0:   1195 shell pairs
          la=2 lb=1:    511 shell pairs
          la=2 lb=2:    111 shell pairs

Calculating one electron integrals          ... done (  0.0 sec)
Calculating RI/J V-Matrix + Cholesky decomp.... done (  0.0 sec)
Calculating Nuclear repulsion               ... done (  0.0 sec) ENN=    726.058791037490 Eh

Diagonalization of the overlap matrix:
Smallest eigenvalue                        ... 2.797e-05
Time for diagonalization                   ...    0.005 sec
Threshold for overlap eigenvalues          ... 1.000e-07
Number of eigenvalues below threshold      ... 0
Time for construction of square roots      ...    0.003 sec
Total time needed                          ...    0.009 sec

-------------------
DFT GRID GENERATION
-------------------

General Integration Accuracy     IntAcc      ... 4.959
Radial Grid Type                 RadialGrid  ... OptM3 with GC (2021)
Angular Grid (max. ang.)         AngularGrid ... 6 (Lebedev-590)
Angular grid pruning method      GridPruning ... 4 (adaptive)
Weight generation scheme         WeightScheme... mBecke (2022)
Basis function cutoff            BFCut       ... 1.0000e-11
Integration weight cutoff        WCut        ... 1.0000e-14
Partially contracted basis set               ... off
Rotationally invariant grid construction     ... off
Angular grids for H and He will be reduced by one unit
Diffuse basis detected: some atoms will have their outermost
                        angular grid increased by 1.

Total number of grid points                  ...   267735
Total number of batches                      ...     4193
Average number of points per batch           ...       63
Average number of grid points per atom       ...    11641
Initializing property integral containers    ... done (  0.0 sec)

SHARK setup successfully completed in   2.0 seconds

Maximum memory used throughout the entire STARTUP-calculation: 57.7 MB


           ************************************************************
           *        Program running with 16 parallel MPI-processes    *
           *              working on a common directory               *
           ************************************************************
-------------------------------------------------------------------------------
                                 ORCA GUESS
                   Start orbitals & Density for SCF / CASSCF
-------------------------------------------------------------------------------

------------
SCF SETTINGS
------------
Hamiltonian:
 Density Functional     Method          .... DFT(GTOs)
 Exchange Functional    Exchange        .... B973C
 Correlation Functional Correlation     .... B973C
 Gradients option       PostSCFGGA      .... off
 RI-approximation to the Coulomb term is turned on
   Number of AuxJ basis functions       .... 426


General Settings:
 Integral files         IntName         .... m1_00_Vitamin_B6-GFN2_000-B97-3C-TZ
 Hartree-Fock type      HFTyp           .... RHF
 Total Charge           Charge          ....    0
 Multiplicity           Mult            ....    1
 Number of Electrons    NEL             ....   90
 Basis Dimension        Dim             ....  276
 Nuclear Repulsion      ENuc            ....    726.0587910375 Eh

Convergence Acceleration:
 AO-DIIS                CNVDIIS         .... on
   Start iteration      DIISMaxIt       ....    12
   Startup error        DIISStart       ....  0.200000
   # of expansion vecs  DIISMaxEq       ....     5
   Bias factor          DIISBfac        ....   1.050
   Max. coefficient     DIISMaxC        ....  10.000
 MO-DIIS                CNVKDIIS        .... off
 Trust-Rad. Augm. Hess. CNVTRAH         .... off
 SOSCF                  CNVSOSCF        .... on
   Start iteration      SOSCFMaxIt      ....   150
   Startup grad/error   SOSCFStart      ....  0.003300
   Hessian update       SOSCFHessUp     .... L-BFGS
 Level Shifting         CNVShift        .... on
   Level shift para.    LevelShift      ....    0.2500
   Turn off err/grad.   ShiftErr        ....    0.0010
 Zerner damping         CNVZerner       .... off
 Static damping         CNVDamp         .... on
   Fraction old density DampFac         ....    0.7000
   Max. Damping (<1)    DampMax         ....    0.9800
   Min. Damping (>=0)   DampMin         ....    0.0000
   Turn off err/grad.   DampErr         ....    0.1000

SCF Procedure:
 Maximum # iterations   MaxIter         ....   800
 SCF integral mode      SCFMode         .... Direct
   Integral package                     .... SHARK and LIBINT hybrid scheme
 Reset frequency        DirectResetFreq ....    20
 Integral Threshold     Thresh          ....  2.500e-11 Eh
 Primitive CutOff       TCut            ....  2.500e-12 Eh

Convergence Tolerance:
 Convergence Check Mode ConvCheckMode   .... Total+1el-Energy
 Convergence forced     ConvForced      .... 0
 Energy Change          TolE            ....  1.000e-08 Eh
 1-El. energy change                    ....  1.000e-05 Eh
 Orbital Gradient       TolG            ....  1.000e-05
 Orbital Rotation angle TolX            ....  1.000e-05
 DIIS Error             TolErr          ....  5.000e-07

--------------------------------
INITIAL GUESS: MINIMAL BASIS EHT
--------------------------------
The minimal basis has 71 functions
EHT matrix was diagonalized
Basis set overlap was calculated now projecting the orbitals
Using GuessMode=FMatrix for the initial guess
C*T matrix was formed
Effective Fockian was calculated
Effective Fockian was diagonalized
Initial density was built
                      ------------------
                      INITIAL GUESS DONE
                      ------------------
             **** ENERGY FILE WAS UPDATED (m1_00_Vitamin_B6-GFN2_000-B97-3C-TZ.en.tmp) ****
Finished Guess after   0.1 sec
Maximum memory used throughout the entire GUESS-calculation: 16.1 MB


           ************************************************************
           *        Program running with 16 parallel MPI-processes    *
           *              working on a common directory               *
           ************************************************************

-------------------------------------------------------------------------------------------
                                      ORCA LEAN-SCF
                              memory conserving SCF solver
-------------------------------------------------------------------------------------------

----------------------------------------D-I-I-S--------------------------------------------
Iteration    Energy (Eh)           Delta-E    RMSDP     MaxDP     DIISErr   Damp  Time(sec)
-------------------------------------------------------------------------------------------
               ***  Starting incremental Fock matrix formation  ***
    1    -589.6287945976525862     0.00e+00  7.95e-03  2.27e-01  4.58e-01  0.700   0.3
Warning: op=0 Small HOMO/LUMO gap (   0.085) - skipping pre-diagonalization
         Will do a full diagonalization
    2    -590.2983648337885825    -6.70e-01  7.48e-03  3.20e-01  3.24e-01  0.700   0.3
    3    -590.6604748865815964    -3.62e-01  3.71e-03  1.12e-01  2.30e-01  0.700   0.3
                               ***Turning on AO-DIIS***
    4    -590.9097024699999565    -2.49e-01  2.71e-03  1.17e-01  1.62e-01  0.700   0.3
    5    -591.0850259628086860    -1.75e-01  1.93e-03  8.77e-02  1.11e-01  0.700   0.3
    6    -591.2089669645461072    -1.24e-01  1.26e-03  4.90e-02  7.73e-02  0.700   0.3
    7    -591.2971731173013268    -8.82e-02  2.88e-03  7.15e-02  5.41e-02  0.000   0.3
    8    -591.5007796719535236    -2.04e-01  5.43e-04  2.44e-02  1.89e-02  0.000   0.3
                              *** Initializing SOSCF ***
---------------------------------------S-O-S-C-F--------------------------------------
Iteration    Energy (Eh)           Delta-E    RMSDP     MaxDP     MaxGrad    Time(sec)
--------------------------------------------------------------------------------------
    9    -591.5026460447370482    -1.87e-03  7.84e-05  3.09e-03  2.91e-03     0.3
               *** Restarting incremental Fock matrix formation ***
   10    -591.5026767592471515    -3.07e-05  8.80e-05  3.05e-03  2.86e-04     0.3
   11    -591.5026549202912065     2.18e-05  6.52e-05  2.59e-03  7.60e-04     0.3
   12    -591.5026841527280794    -2.92e-05  3.55e-05  1.71e-03  1.72e-04     0.3
   13    -591.5026813511315140     2.80e-06  2.82e-05  1.71e-03  4.49e-04     0.2
   14    -591.5026848590505324    -3.51e-06  1.03e-05  6.61e-04  3.08e-05     0.2
   15    -591.5026847686397105     9.04e-08  6.55e-06  3.71e-04  3.80e-05     0.2
   16    -591.5026849090875203    -1.40e-07  5.84e-06  2.95e-04  5.84e-06     0.2
   17    -591.5026848905642964     1.85e-08  2.54e-06  1.16e-04  1.55e-05     0.2
   18    -591.5026848951513330    -4.59e-09  3.65e-06  1.43e-04  2.78e-06     0.2
                 **** Energy Check signals convergence ****

               *****************************************************
               *                     SUCCESS                       *
               *           SCF CONVERGED AFTER  18 CYCLES          *
               *****************************************************

             **** ENERGY FILE WAS UPDATED (m1_00_Vitamin_B6-GFN2_000-B97-3C-TZ.en.tmp) ****

----------------
TOTAL SCF ENERGY
----------------

Total Energy       :       -591.50268489515133 Eh          -16095.60634 eV

Components:
Nuclear Repulsion  :        726.05879103748998 Eh           19757.06413 eV
Electronic Energy  :      -1317.56147593264132 Eh          -35852.67047 eV
One Electron Energy:      -2246.88762687003282 Eh          -61140.92067 eV
Two Electron Energy:        929.32615093739150 Eh           25288.25020 eV

Virial components:
Potential Energy   :      -1180.93691271439093 Eh          -32134.92710 eV
Kinetic Energy     :        589.43422781923971 Eh           16039.32076 eV
Virial Ratio       :          2.00350922457212

DFT components:
N(Alpha)           :       45.000001253342 electrons
N(Beta)            :       45.000001253342 electrons
N(Total)           :       90.000002506684 electrons
E(XC)              :      -79.829177042104 Eh       

---------------
SCF CONVERGENCE
---------------

  Last Energy change         ...    4.5870e-09  Tolerance :   1.0000e-08
  Last MAX-Density change    ...    1.4257e-04  Tolerance :   1.0000e-07
  Last RMS-Density change    ...    3.6549e-06  Tolerance :   5.0000e-09
  Last DIIS Error            ...    2.9099e-03  Tolerance :   5.0000e-07
  Last Orbital Gradient      ...    2.7750e-06  Tolerance :   1.0000e-05
  Last Orbital Rotation      ...    1.3086e-05  Tolerance :   1.0000e-05


----------------
ORBITAL ENERGIES
----------------

  NO   OCC          E(Eh)            E(eV) 
   0   2.0000     -18.779455      -511.0150 
   1   2.0000     -18.772475      -510.8250 
   2   2.0000     -18.758722      -510.4508 
   3   2.0000     -13.974560      -380.2671 
   4   2.0000      -9.959257      -271.0052 
   5   2.0000      -9.956473      -270.9294 
   6   2.0000      -9.952368      -270.8177 
   7   2.0000      -9.924115      -270.0489 
   8   2.0000      -9.913597      -269.7627 
   9   2.0000      -9.913485      -269.7596 
  10   2.0000      -9.905871      -269.5525 
  11   2.0000      -9.876088      -268.7420 
  12   2.0000      -0.990610       -26.9559 
  13   2.0000      -0.969720       -26.3874 
  14   2.0000      -0.958465       -26.0811 
  15   2.0000      -0.870458       -23.6864 
  16   2.0000      -0.755137       -20.5483 
  17   2.0000      -0.713535       -19.4163 
  18   2.0000      -0.669256       -18.2114 
  19   2.0000      -0.644594       -17.5403 
  20   2.0000      -0.608168       -16.5491 
  21   2.0000      -0.577030       -15.7018 
  22   2.0000      -0.539613       -14.6836 
  23   2.0000      -0.517375       -14.0785 
  24   2.0000      -0.485576       -13.2132 
  25   2.0000      -0.464579       -12.6418 
  26   2.0000      -0.445526       -12.1234 
  27   2.0000      -0.430954       -11.7268 
  28   2.0000      -0.424180       -11.5425 
  29   2.0000      -0.405097       -11.0232 
  30   2.0000      -0.398504       -10.8439 
  31   2.0000      -0.390704       -10.6316 
  32   2.0000      -0.381383       -10.3780 
  33   2.0000      -0.353774        -9.6267 
  34   2.0000      -0.344246        -9.3674 
  35   2.0000      -0.336829        -9.1656 
  36   2.0000      -0.329863        -8.9760 
  37   2.0000      -0.320791        -8.7292 
  38   2.0000      -0.309569        -8.4238 
  39   2.0000      -0.307114        -8.3570 
  40   2.0000      -0.266311        -7.2467 
  41   2.0000      -0.249557        -6.7908 
  42   2.0000      -0.237392        -6.4598 
  43   2.0000      -0.207593        -5.6489 
  44   2.0000      -0.200999        -5.4695 
  45   0.0000      -0.057182        -1.5560 
  46   0.0000      -0.031837        -0.8663 
  47   0.0000      -0.003714        -0.1011 
  48   0.0000       0.019916         0.5420 
  49   0.0000       0.040166         1.0930 
  50   0.0000       0.054794         1.4910 
  51   0.0000       0.061633         1.6771 
  52   0.0000       0.070364         1.9147 
  53   0.0000       0.079929         2.1750 
  54   0.0000       0.093838         2.5535 
  55   0.0000       0.101729         2.7682 
*Only the first 10 virtual orbitals were printed.

                    ********************************
                    * MULLIKEN POPULATION ANALYSIS *
                    ********************************

-----------------------
MULLIKEN ATOMIC CHARGES
-----------------------
   0 O :   -0.541351
   1 O :   -0.623694
   2 O :   -0.559392
   3 N :   -0.038702
   4 C :   -0.030849
   5 C :    0.106587
   6 C :    0.469990
   7 C :   -0.062407
   8 C :   -0.319128
   9 C :   -0.393834
  10 C :   -0.214089
  11 C :   -0.550166
  12 H :    0.181662
  13 H :    0.233865
  14 H :    0.190903
  15 H :    0.174671
  16 H :    0.146156
  17 H :    0.169646
  18 H :    0.193242
  19 H :    0.171135
  20 H :    0.427995
  21 H :    0.439095
  22 H :    0.428667
Sum of atomic charges:    0.0000000

--------------------------------
MULLIKEN REDUCED ORBITAL CHARGES
--------------------------------
  0 O s       :     3.786335  s :     3.786335
      pz      :     1.543287  p :     4.716226
      px      :     1.411831
      py      :     1.761107
      dz2     :     0.007659  d :     0.038790
      dxz     :     0.006870
      dyz     :     0.006296
      dx2y2   :     0.011489
      dxy     :     0.006478

  1 O s       :     3.822929  s :     3.822929
      pz      :     1.826695  p :     4.754714
      px      :     1.462509
      py      :     1.465510
      dz2     :     0.011623  d :     0.046051
      dxz     :     0.004395
      dyz     :     0.006838
      dx2y2   :     0.018581
      dxy     :     0.004615

  2 O s       :     3.812409  s :     3.812409
      pz      :     1.516049  p :     4.710268
      px      :     1.903192
      py      :     1.291027
      dz2     :     0.010333  d :     0.036716
      dxz     :     0.000225
      dyz     :     0.005364
      dx2y2   :     0.014023
      dxy     :     0.006771

  3 N s       :     3.438835  s :     3.438835
      pz      :     1.370290  p :     3.552267
      px      :     0.995736
      py      :     1.186240
      dz2     :     0.009238  d :     0.047600
      dxz     :     0.014952
      dyz     :     0.005806
      dx2y2   :     0.007646
      dxy     :     0.009959

  4 C s       :     3.277084  s :     3.277084
      pz      :     0.814139  p :     2.708282
      px      :     0.859862
      py      :     1.034281
      dz2     :     0.010306  d :     0.045483
      dxz     :     0.014263
      dyz     :     0.005757
      dx2y2   :     0.007526
      dxy     :     0.007632

  5 C s       :     3.084440  s :     3.084440
      pz      :     0.913186  p :     2.761888
      px      :     0.863154
      py      :     0.985548
      dz2     :     0.010856  d :     0.047085
      dxz     :     0.014004
      dyz     :     0.006637
      dx2y2   :     0.008436
      dxy     :     0.007152

  6 C s       :     3.007092  s :     3.007092
      pz      :     0.844712  p :     2.450419
      px      :     0.717287
      py      :     0.888420
      dz2     :     0.013972  d :     0.072498
      dxz     :     0.020557
      dyz     :     0.007057
      dx2y2   :     0.013962
      dxy     :     0.016951

  7 C s       :     3.184688  s :     3.184688
      pz      :     0.972710  p :     2.813260
      px      :     0.887192
      py      :     0.953358
      dz2     :     0.013335  d :     0.064459
      dxz     :     0.021184
      dyz     :     0.007657
      dx2y2   :     0.011217
      dxy     :     0.011065

  8 C s       :     3.325616  s :     3.325616
      pz      :     1.029988  p :     2.929184
      px      :     0.834596
      py      :     1.064600
      dz2     :     0.012737  d :     0.064329
      dxz     :     0.019756
      dyz     :     0.006905
      dx2y2   :     0.017614
      dxy     :     0.007317

  9 C s       :     3.345476  s :     3.345476
      pz      :     0.879019  p :     2.981990
      px      :     1.078260
      py      :     1.024710
      dz2     :     0.012643  d :     0.066369
      dxz     :     0.020527
      dyz     :     0.013455
      dx2y2   :     0.014354
      dxy     :     0.005390

 10 C s       :     3.196914  s :     3.196914
      pz      :     0.973539  p :     2.958310
      px      :     0.998440
      py      :     0.986331
      dz2     :     0.017188  d :     0.058865
      dxz     :     0.015591
      dyz     :     0.008919
      dx2y2   :     0.010150
      dxy     :     0.007017

 11 C s       :     3.265667  s :     3.265667
      pz      :     1.061773  p :     3.247467
      px      :     1.067306
      py      :     1.118388
      dz2     :     0.006003  d :     0.037032
      dxz     :     0.010658
      dyz     :     0.006525
      dx2y2   :     0.004389
      dxy     :     0.009456

 12 H s       :     0.818338  s :     0.818338

 13 H s       :     0.766135  s :     0.766135

 14 H s       :     0.809097  s :     0.809097

 15 H s       :     0.825329  s :     0.825329

 16 H s       :     0.853844  s :     0.853844

 17 H s       :     0.830354  s :     0.830354

 18 H s       :     0.806758  s :     0.806758

 19 H s       :     0.828865  s :     0.828865

 20 H s       :     0.572005  s :     0.572005

 21 H s       :     0.560905  s :     0.560905

 22 H s       :     0.571333  s :     0.571333



                     *******************************
                     * LOEWDIN POPULATION ANALYSIS *
                     *******************************

----------------------
LOEWDIN ATOMIC CHARGES
----------------------
   0 O :   -0.628543
   1 O :   -0.725411
   2 O :   -0.751577
   3 N :   -0.164321
   4 C :   -0.013517
   5 C :   -0.066040
   6 C :    0.199994
   7 C :    0.029089
   8 C :    0.037808
   9 C :    0.023387
  10 C :   -0.095980
  11 C :   -0.395486
  12 H :    0.193814
  13 H :    0.209818
  14 H :    0.186170
  15 H :    0.173766
  16 H :    0.156240
  17 H :    0.173181
  18 H :    0.167874
  19 H :    0.173720
  20 H :    0.387311
  21 H :    0.368416
  22 H :    0.360288

-------------------------------
LOEWDIN REDUCED ORBITAL CHARGES
-------------------------------
  0 O s       :     3.511026  s :     3.511026
      pz      :     1.530010  p :     4.777511
      px      :     1.501884
      py      :     1.745618
      dz2     :     0.085746  d :     0.340006
      dxz     :     0.077541
      dyz     :     0.031863
      dx2y2   :     0.070689
      dxy     :     0.074169

  1 O s       :     3.549705  s :     3.549705
      pz      :     1.777927  p :     4.828343
      px      :     1.549658
      py      :     1.500758
      dz2     :     0.065134  d :     0.347363
      dxz     :     0.084766
      dyz     :     0.031715
      dx2y2   :     0.099738
      dxy     :     0.066011

  2 O s       :     3.561776  s :     3.561776
      pz      :     1.594461  p :     4.857098
      px      :     1.895099
      py      :     1.367538
      dz2     :     0.088014  d :     0.332703
      dxz     :     0.071201
      dyz     :     0.069591
      dx2y2   :     0.064865
      dxy     :     0.039032

  3 N s       :     3.207047  s :     3.207047
      pz      :     1.466476  p :     3.867740
      px      :     1.198788
      py      :     1.202476
      dz2     :     0.015446  d :     0.089534
      dxz     :     0.029278
      dyz     :     0.007648
      dx2y2   :     0.017239
      dxy     :     0.019924

  4 C s       :     2.840452  s :     2.840452
      pz      :     1.026083  p :     3.080203
      px      :     1.050264
      py      :     1.003855
      dz2     :     0.021666  d :     0.092862
      dxz     :     0.029650
      dyz     :     0.011256
      dx2y2   :     0.015713
      dxy     :     0.014577

  5 C s       :     2.855102  s :     2.855102
      pz      :     1.055306  p :     3.113280
      px      :     1.057708
      py      :     1.000267
      dz2     :     0.022710  d :     0.097658
      dxz     :     0.030325
      dyz     :     0.012967
      dx2y2   :     0.017378
      dxy     :     0.014278

  6 C s       :     2.776711  s :     2.776711
      pz      :     1.027644  p :     2.863305
      px      :     0.907837
      py      :     0.927824
      dz2     :     0.030863  d :     0.159990
      dxz     :     0.046196
      dyz     :     0.014205
      dx2y2   :     0.034200
      dxy     :     0.034525

  7 C s       :     2.828047  s :     2.828047
      pz      :     1.035555  p :     3.007072
      px      :     1.021494
      py      :     0.950023
      dz2     :     0.027059  d :     0.135793
      dxz     :     0.048264
      dyz     :     0.015292
      dx2y2   :     0.023392
      dxy     :     0.021785

  8 C s       :     2.857324  s :     2.857324
      pz      :     1.026072  p :     2.978572
      px      :     0.896391
      py      :     1.056109
      dz2     :     0.024312  d :     0.126295
      dxz     :     0.038805
      dyz     :     0.012495
      dx2y2   :     0.036250
      dxy     :     0.014433

  9 C s       :     2.858597  s :     2.858597
      pz      :     0.930752  p :     2.987446
      px      :     1.049029
      py      :     1.007665
      dz2     :     0.026942  d :     0.130569
      dxz     :     0.041046
      dyz     :     0.028640
      dx2y2   :     0.025236
      dxy     :     0.008706

 10 C s       :     2.877682  s :     2.877682
      pz      :     1.040413  p :     3.097653
      px      :     1.054374
      py      :     1.002865
      dz2     :     0.037650  d :     0.120645
      dxz     :     0.034020
      dyz     :     0.018726
      dx2y2   :     0.018169
      dxy     :     0.012080

 11 C s       :     2.974181  s :     2.974181
      pz      :     1.103016  p :     3.360788
      px      :     1.113508
      py      :     1.144264
      dz2     :     0.009988  d :     0.060517
      dxz     :     0.018340
      dyz     :     0.010411
      dx2y2   :     0.006699
      dxy     :     0.015079

 12 H s       :     0.806186  s :     0.806186

 13 H s       :     0.790182  s :     0.790182

 14 H s       :     0.813830  s :     0.813830

 15 H s       :     0.826234  s :     0.826234

 16 H s       :     0.843760  s :     0.843760

 17 H s       :     0.826819  s :     0.826819

 18 H s       :     0.832126  s :     0.832126

 19 H s       :     0.826280  s :     0.826280

 20 H s       :     0.612689  s :     0.612689

 21 H s       :     0.631584  s :     0.631584

 22 H s       :     0.639712  s :     0.639712



                      *****************************
                      * MAYER POPULATION ANALYSIS *
                      *****************************

  NA   - Mulliken gross atomic population
  ZA   - Total nuclear charge
  QA   - Mulliken gross atomic charge
  VA   - Mayer's total valence
  BVA  - Mayer's bonded valence
  FA   - Mayer's free valence

  ATOM       NA         ZA         QA         VA         BVA        FA
  0 O      8.5414     8.0000    -0.5414     1.9271     1.9271     0.0000
  1 O      8.6237     8.0000    -0.6237     1.8114     1.8114    -0.0000
  2 O      8.5594     8.0000    -0.5594     1.7434     1.7434     0.0000
  3 N      7.0387     7.0000    -0.0387     3.2267     3.2267    -0.0000
  4 C      6.0308     6.0000    -0.0308     3.3965     3.3965     0.0000
  5 C      5.8934     6.0000     0.1066     3.3308     3.3308    -0.0000
  6 C      5.5300     6.0000     0.4700     3.5355     3.5355     0.0000
  7 C      6.0624     6.0000    -0.0624     3.8480     3.8480    -0.0000
  8 C      6.3191     6.0000    -0.3191     3.6377     3.6377     0.0000
  9 C      6.3938     6.0000    -0.3938     3.8618     3.8618     0.0000
 10 C      6.2141     6.0000    -0.2141     4.0116     4.0116     0.0000
 11 C      6.5502     6.0000    -0.5502     3.7162     3.7162    -0.0000
 12 H      0.8183     1.0000     0.1817     0.9362     0.9362    -0.0000
 13 H      0.7661     1.0000     0.2339     0.9496     0.9496     0.0000
 14 H      0.8091     1.0000     0.1909     0.9236     0.9236     0.0000
 15 H      0.8253     1.0000     0.1747     0.9335     0.9335     0.0000
 16 H      0.8538     1.0000     0.1462     0.9503     0.9503     0.0000
 17 H      0.8304     1.0000     0.1696     0.9519     0.9519     0.0000
 18 H      0.8068     1.0000     0.1932     0.9606     0.9606    -0.0000
 19 H      0.8289     1.0000     0.1711     0.9519     0.9519    -0.0000
 20 H      0.5720     1.0000     0.4280     0.8325     0.8325    -0.0000
 21 H      0.5609     1.0000     0.4391     0.7820     0.7820    -0.0000
 22 H      0.5713     1.0000     0.4287     0.7926     0.7926     0.0000

  Mayer bond orders larger than 0.100000
B(  0-O ,  6-C ) :   1.1304 B(  0-O , 20-H ) :   0.6712 B(  1-O ,  8-C ) :   0.9988 
B(  1-O , 20-H ) :   0.1533 B(  1-O , 21-H ) :   0.7654 B(  2-O ,  9-C ) :   1.0101 
B(  2-O , 22-H ) :   0.7688 B(  3-N ,  7-C ) :   1.6741 B(  3-N , 10-C ) :   1.5264 
B(  4-C ,  5-C ) :   1.2535 B(  4-C ,  6-C ) :   1.3087 B(  4-C ,  8-C ) :   0.8712 
B(  5-C ,  9-C ) :   0.8559 B(  5-C , 10-C ) :   1.3668 B(  6-C ,  7-C ) :   1.3042 
B(  6-C ,  8-C ) :  -0.1112 B(  7-C , 11-C ) :   0.8793 B(  8-C , 12-H ) :   0.9451 
B(  8-C , 13-H ) :   0.9386 B(  9-C , 14-H ) :   0.9546 B(  9-C , 15-H ) :   0.9650 
B( 10-C , 16-H ) :   0.9563 B( 11-C , 17-H ) :   0.9522 B( 11-C , 18-H ) :   0.9721 
B( 11-C , 19-H ) :   0.9494 


------------------
HIRSHFELD ANALYSIS
------------------

Total integrated alpha density =     45.000001253
Total integrated beta density  =     45.000001253

  ATOM     CHARGE      SPIN    
   0 O   -0.194718    0.000000
   1 O   -0.197723    0.000000
   2 O   -0.231504    0.000000
   3 N   -0.191296    0.000000
   4 C   -0.027744    0.000000
   5 C   -0.025979    0.000000
   6 C    0.067754    0.000000
   7 C    0.057175    0.000000
   8 C    0.036161    0.000000
   9 C    0.035674    0.000000
  10 C   -0.000094    0.000000
  11 C   -0.079624    0.000000
  12 H    0.042187    0.000000
  13 H    0.033443    0.000000
  14 H    0.039706    0.000000
  15 H    0.029412    0.000000
  16 H    0.032498    0.000000
  17 H    0.035180    0.000000
  18 H    0.036168    0.000000
  19 H    0.036590    0.000000
  20 H    0.135821    0.000000
  21 H    0.173029    0.000000
  22 H    0.157881    0.000000

  TOTAL  -0.000003    0.000000

-------
TIMINGS
-------

Total SCF time: 0 days 0 hours 0 min 5 sec 

Total time                  ....       5.380 sec
Sum of individual times     ....       5.315 sec  ( 98.8%)

SCF preparation             ....       0.127 sec  (  2.4%)
Fock matrix formation       ....       4.396 sec  ( 81.7%)
  Startup                   ....       0.012 sec  (  0.3% of F)
  Split-RI-J                ....       0.707 sec  ( 16.1% of F)
  XC integration            ....       3.452 sec  ( 78.5% of F)
    XC Preparation          ....       0.000 sec  (  0.0% of XC)
    Basis function eval.    ....       0.872 sec  ( 25.3% of XC)
    Density eval.           ....       0.721 sec  ( 20.9% of XC)
    XC-Functional eval.     ....       0.110 sec  (  3.2% of XC)
    XC-Potential eval.      ....       0.686 sec  ( 19.9% of XC)
Diagonalization             ....       0.000 sec  (  0.0%)
Density matrix formation    ....       0.041 sec  (  0.8%)
Total Energy calculation    ....       0.024 sec  (  0.4%)
Population analysis         ....       0.376 sec  (  7.0%)
Orbital Transformation      ....       0.035 sec  (  0.7%)
Orbital Orthonormalization  ....       0.000 sec  (  0.0%)
DIIS solution               ....       0.205 sec  (  3.8%)
SOSCF solution              ....       0.112 sec  (  2.1%)
Finished LeanSCF after   5.4 sec

Maximum memory used throughout the entire LEANSCF-calculation: 43.3 MB


           ************************************************************
           *        Program running with 16 parallel MPI-processes    *
           *              working on a common directory               *
           ************************************************************

------------------------------------------------------------------------------
                         ORCA PROPERTY INTEGRAL CALCULATIONS
------------------------------------------------------------------------------

GBWName                                   ... m1_00_Vitamin_B6-GFN2_000-B97-3C-TZ.gbw
Number of atoms                           ...     23
Number of basis functions                 ...    276
Max core memory                           ...   6000 MB

Dipole integrals                          ... YES
Quadrupole integrals                      ...  NO
Linear momentum integrals                 ...  NO
Angular momentum integrals                ...  NO
Higher moments length integrals           ...  NO
Higher moments velocity integrals         ...  NO
Kinetic energy integrals                  ...  NO
GIAO right hand sides                     ...  NO
GIAO dipole derivative integrals          ...  NO
SOC integrals                             ...  NO
EPR diamagnetic integrals (GIAO)          ...  NO
EPR gauge integrals                       ...  NO
Field gradient integrals                  ...  NO (   0 nuclei)
Spin-dipole/Fermi contact integrals       ...  NO (   0 nuclei)
Contact density integrals                 ...  NO (   0 nuclei)
Nucleus-orbit integrals                   ...  NO (   0 nuclei)
Geometric perturbations                   ...  NO (  23 nuclei)

Choice of electric origin   ... Center of mass
Position of electric origin ... (  1.2468, -1.3712, -1.1663) 
Choice of magnetic origin   ... GIAO
Position of magnetic origin ... (  0.0000,  0.0000,  0.0000) 

Calculating integrals                     ... Electric Dipole (Length)     done (  0.0 sec)

Property integrals calculated in   0.0 sec

Maximum memory used throughout the entire PROPINT-calculation: 16.7 MB


-------------------------------------------------------------------------------
                          DFT DISPERSION CORRECTION                            
                                                                               
                              DFTD3 V3.1  Rev 1                                
                          USING Becke-Johnson damping                          
-------------------------------------------------------------------------------
The B97-3c composite method is recognized
Using three-body term ABC
Active option DFTDOPT                   ...         4   

molecular C6(AA) [au] = 5022.256762 


            DFT-D V3
 parameters
 s6 scaling factor         :     1.0000 
 a1 scaling factor         :     0.3700 
 s8 scaling factor         :     1.5000 
 a2 scaling factor         :     4.1000 
 Damping factor alpha9(ATM):    16.0000 
 ad hoc parameters k1-k3   :    16.0000     1.3333    -4.0000 

 Edisp/kcal,au: -34.449134142984  -0.054898183840 
 E6   /kcal   : -17.565136265 
 E8   /kcal   : -16.942585336 
 E6(ABC)      :   0.058587458 
 % E8         :  49.181454795 
 % E6(ABC)    :  -0.170069463 

-------------------------   ----------------
Dispersion correction           -0.054898184
-------------------------   ----------------

------------------   -----------------
SRB correction            -0.067764617
------------------   -----------------

-------------------------   --------------------
FINAL SINGLE POINT ENERGY      -591.625347696491
-------------------------   --------------------



           ************************************************************
           *        Program running with 16 parallel MPI-processes    *
           *              working on a common directory               *
           ************************************************************
------------------------------------------------------------------------------
                         ORCA SCF GRADIENT CALCULATION
------------------------------------------------------------------------------

Nuc. rep. gradient        (SHARK) ... done (  0.0 sec)
HCore & Overlap gradient  (SHARK) ... done (  0.0 sec)
Split-RIJ-J gradient      (SHARK) ... done (  0.1 sec)
XC gradient                       ... done (  1.5 sec)
Dispersion correction             ... done (  0.0 sec)

-------------------
DISPERSION GRADIENT
-------------------

   1   O   :    0.000882857   -0.000250410    0.000001318
   2   O   :    0.000437833   -0.000114270   -0.000693526
   3   O   :   -0.000603822    0.000349781   -0.000632928
   4   N   :   -0.000560427    0.000409810    0.000739757
   5   C   :    0.000310684   -0.000378425   -0.000210442
   6   C   :   -0.000834327    0.000060316    0.000168664
   7   C   :    0.000643028   -0.000133388    0.000242246
   8   C   :    0.000298410    0.000247672    0.000806839
   9   C   :    0.000499992   -0.000581872   -0.000848805
  10   C   :   -0.000984639   -0.000015846   -0.000416489
  11   C   :   -0.000716779    0.000379583    0.000796888
  12   C   :    0.000485379    0.000208118    0.000771797
  13   H   :    0.000080046   -0.000563714   -0.000323047
  14   H   :    0.000097631   -0.000213959   -0.000525784
  15   H   :   -0.000513605   -0.000304943   -0.000194494
  16   H   :   -0.000462236   -0.000040330   -0.000097071
  17   H   :   -0.000392577    0.000200407    0.000349113
  18   H   :    0.000348659    0.000243289    0.000272639
  19   H   :    0.000144353    0.000123207    0.000365019
  20   H   :    0.000270571   -0.000104963    0.000413992
  21   H   :    0.000515276   -0.000143903   -0.000099164
  22   H   :    0.000304179    0.000196119   -0.000506689
  23   H   :   -0.000250485    0.000427722   -0.000379834

Difference to translation invariance:
           :    0.0000000000    0.0000000000   -0.0000000000

Difference to rotation invariance:
           :    0.0000000000   -0.0000000000    0.0000000000

Norm of the Dispersion gradient    ...    0.0037171799
RMS gradient                       ...    0.0004474959
MAX gradient                       ...    0.0009846385
SRB correction                   ... done

------------------
CARTESIAN GRADIENT
------------------

   1   O   :   -0.003590528    0.003159258   -0.003656023
   2   O   :   -0.009263338    0.001400145    0.003724800
   3   O   :    0.000786662   -0.004013438    0.010699292
   4   N   :    0.002020265   -0.003985800   -0.008361748
   5   C   :   -0.001916273    0.001038114    0.003807418
   6   C   :    0.002611610    0.000013103    0.000865620
   7   C   :    0.007462756   -0.001254358    0.002607932
   8   C   :   -0.011673658    0.001843689   -0.000343169
   9   C   :    0.010889661    0.002140070   -0.004864696
  10   C   :   -0.001827714    0.001406729   -0.009812153
  11   C   :    0.005422959    0.002309217    0.006900573
  12   C   :    0.002326581    0.000847492    0.003757736
  13   H   :    0.000032235   -0.002812613    0.001611412
  14   H   :   -0.002584268    0.002412263   -0.003065311
  15   H   :    0.001965557   -0.002869636   -0.000921792
  16   H   :   -0.001949307    0.003366625    0.000374820
  17   H   :    0.002776040    0.000194721    0.001658978
  18   H   :   -0.002102248    0.000127843   -0.001860144
  19   H   :   -0.000509875    0.000281315    0.000259361
  20   H   :   -0.002399337   -0.000446521   -0.001664781
  21   H   :    0.001141613   -0.004173264    0.001099745
  22   H   :    0.000869712   -0.001155029   -0.001066588
  23   H   :   -0.000489106    0.000170076   -0.001751285

Difference to translation invariance:
           :    0.0000000000    0.0000000000    0.0000000000

Difference to rotation invariance:
           :   -0.0000451002    0.0000412637   -0.0000047767

Norm of the Cartesian gradient     ...    0.0324858098
RMS gradient                       ...    0.0039108319
MAX gradient                       ...    0.0116736583

-------
TIMINGS
-------

Total SCF gradient time     ....        1.752 sec

Densities                   ....       0.001 sec  (  0.1%)
One electron gradient       ....       0.035 sec  (  2.0%)
RI-J Coulomb gradient       ....       0.123 sec  (  7.0%)
XC gradient                 ....       1.532 sec  ( 87.5%)

Maximum memory used throughout the entire SCFGRAD-calculation: 51.4 MB
------------------------------------------------------------------------------
                         ORCA GEOMETRY RELAXATION STEP
------------------------------------------------------------------------------

Reading the OPT-File                    .... done
Getting information on internals        .... done
Copying old internal coords+grads       .... done
Making the new internal coordinates     .... (2022 redundants) done
Validating the new internal coordinates .... (2022 redundants) done
Calculating the B-matrix                .... done
Calculating the G,G- and P matrices     .... done
Transforming gradient to internals      .... done
Projecting the internal gradient        .... done
Number of atoms                         ....  23
Number of internal coordinates          .... 104
Current Energy                          ....  -591.625347696 Eh
Current gradient norm                   ....     0.032485810 Eh/bohr
Maximum allowed component of the step   ....  0.300
Current trust radius                    ....  0.300
Evaluating the initial hessian          ....  (Almloef) done
Projecting the Hessian                  .... done
Forming the augmented Hessian           .... done
Diagonalizing the augmented Hessian     .... done
Last element of RFO vector              ....  0.974743875
Lowest eigenvalues of augmented Hessian:
 -0.002775940  0.012193686  0.013520033  0.013755514  0.020486002
Length of the computed step             ....  0.229112208
The final length of the internal step   ....  0.229112208
Converting the step to Cartesian space:
 Initial RMS(Int)=    0.0224663004
Transforming coordinates:
 Iter   0:  RMS(Cart)=    0.0610863976 RMS(Int)=    1.2303183420
 Iter   5:  RMS(Cart)=    0.0000002897 RMS(Int)=    0.0000001803
done
Storing new coordinates                 .... done

                                .--------------------.
          ----------------------|Geometry convergence|-------------------------
          Item                value                   Tolerance       Converged
          ---------------------------------------------------------------------
          RMS gradient        0.0025941862            0.0000300000      NO
          MAX gradient        0.0108315401            0.0001000000      NO
          RMS step            0.0224663004            0.0020000000      NO
          MAX step            0.0984541330            0.0040000000      NO
          ........................................................
          Max(Bonds)      0.0235      Max(Angles)    0.86
          Max(Dihed)        5.64      Max(Improp)    0.00
          ---------------------------------------------------------------------

The optimization has not yet converged - more geometry cycles are needed


    ---------------------------------------------------------------------------
                         Redundant Internal Coordinates
                            (Angstroem and degrees)

        Definition                    Value    dE/dq     Step     New-Value
    ----------------------------------------------------------------------------
     1. B(C   5,C   4)                1.3997 -0.001818  0.0014    1.4012   
     2. B(C   6,O   0)                1.3514 -0.001878  0.0017    1.3530   
     3. B(C   6,C   4)                1.3967 -0.000936  0.0011    1.3978   
     4. B(C   7,C   6)                1.4082  0.000788 -0.0006    1.4076   
     5. B(C   7,N   3)                1.3177 -0.009817  0.0072    1.3249   
     6. B(C   8,C   4)                1.5143  0.002032 -0.0022    1.5121   
     7. B(C   8,O   1)                1.4218 -0.008462  0.0089    1.4307   
     8. B(C   9,C   5)                1.5089  0.002270 -0.0030    1.5060   
     9. B(C   9,O   2)                1.4159 -0.009477  0.0098    1.4257   
    10. B(C  10,C   5)                1.3863  0.001126 -0.0010    1.3853   
    11. B(C  10,N   3)                1.3223 -0.010832  0.0080    1.3304   
    12. B(C  11,C   7)                1.4931 -0.001406  0.0017    1.4948   
    13. B(H  12,C   8)                1.0966  0.002974 -0.0044    1.0922   
    14. B(H  13,C   8)                1.0924  0.004447 -0.0065    1.0858   
    15. B(H  14,C   9)                1.0936  0.002892 -0.0043    1.0893   
    16. B(H  15,C   9)                1.0978  0.002648 -0.0040    1.0938   
    17. B(H  16,C  10)                1.0824 -0.002061  0.0029    1.0853   
    18. B(H  17,C  11)                1.0885 -0.000823  0.0012    1.0897   
    19. B(H  18,C  11)                1.0851  0.000542 -0.0008    1.0843   
    20. B(H  19,C  11)                1.0885 -0.000996  0.0014    1.0899   
    21. B(H  20,O   1)                1.8455  0.000473 -0.0235    1.8220   
    22. B(H  20,O   0)                0.9759  0.000723 -0.0012    0.9747   
    23. B(H  21,O   1)                0.9634 -0.000781  0.0008    0.9642   
    24. B(H  22,O   2)                0.9635 -0.000286  0.0003    0.9638   
    25. A(C   6,O   0,H  20)          108.67  0.003190   -0.40    108.26   
    26. A(C   8,O   1,H  21)          108.66  0.002175   -0.35    108.32   
    27. A(C   9,O   2,H  22)          108.43  0.003022   -0.48    107.95   
[...]
     35      -0.000184   0.000002  -0.000006
     36       0.001109   0.004325  -0.000287
     37       0.005759  -0.014280   0.000340
     38      -0.002757   0.002851  -0.000049
     39       0.009147   0.000024  -0.000718
     40       0.001328  -0.002232  -0.000092
     41      -0.000344   0.003884  -0.000760
     42      -0.000634   0.000205  -0.000029
     43      -0.001920   0.000739   0.014113
     44      -0.001081   0.000166   0.007355
     45       0.000481  -0.000165  -0.000373
     46      -0.000245   0.000290   0.002022
     47      -0.000735  -0.000077  -0.002061
     48       0.000300  -0.000293   0.000280
     49      -0.000287   0.000150   0.000388
     50      -0.000467   0.000211  -0.000110
     51       0.000938   0.000076  -0.000081
     52       0.000112   0.000016  -0.000064
     53      -0.000620   0.000000   0.000038
     54      -0.001427  -0.000033   0.000025
     55       0.000914   0.000051  -0.000032
     56       0.001526   0.000120  -0.000064
     57       0.000620   0.000019  -0.000068
     58      -0.000602   0.000003  -0.000002
     59      -0.000270  -0.000005  -0.000046
     60      -0.181633   0.000722   0.000132
     61       0.145200  -0.000653  -0.000003
     62       0.970269  -0.019345   0.000206
     63       0.008243   0.140825  -0.002578
     64      -0.015993  -0.948309   0.019160
     65       0.010939   0.275581  -0.005591
     66       0.000029   0.002071   0.119634
     67       0.000008   0.018949   0.941505
     68       0.000764   0.006544   0.307705


-----------
IR SPECTRUM
-----------

 Mode   freq       eps      Int      T**2         TX        TY        TZ
       cm**-1   L/(mol*cm) km/mol    a.u.
----------------------------------------------------------------------------
  6:     75.79   0.000709    3.58  0.002918  ( 0.044963 -0.014072 -0.026421)
  7:     80.75   0.000240    1.21  0.000927  (-0.006857 -0.023052  0.018672)
  8:    101.34   0.000397    2.01  0.001224  (-0.005332 -0.003262  0.034420)
  9:    121.64   0.000350    1.77  0.000897  (-0.001088  0.029017 -0.007323)
 10:    129.11   0.001137    5.75  0.002749  (-0.005554  0.036259 -0.037463)
 11:    209.57   0.000532    2.69  0.000792  (-0.004447  0.025825  0.010253)
 12:    232.62   0.000417    2.11  0.000559  (-0.002053  0.002861  0.023375)
 13:    278.69   0.000538    2.72  0.000602  (-0.020164 -0.009833 -0.009932)
 14:    290.88   0.005347   27.02  0.005736  ( 0.072330 -0.018809  0.012293)
 15:    318.95   0.002504   12.65  0.002450  (-0.047155  0.014199 -0.004952)
 16:    347.35   0.016305   82.40  0.014648  (-0.114795  0.027261 -0.026964)
 17:    356.58   0.004938   24.95  0.004321  ( 0.026528 -0.017169  0.057644)
 18:    413.51   0.005286   26.72  0.003989  (-0.000303 -0.000061 -0.063162)
 19:    440.23   0.013771   69.60  0.009762  (-0.024204  0.003219 -0.095738)
 20:    494.99   0.002259   11.41  0.001424  (-0.022790  0.006077  0.029456)
 21:    524.30   0.000912    4.61  0.000543  ( 0.004841 -0.012260 -0.019205)
 22:    545.33   0.001219    6.16  0.000697  ( 0.003784 -0.016428  0.020327)
 23:    582.62   0.001610    8.14  0.000863  (-0.013657  0.025061  0.006924)
 24:    640.45   0.001309    6.62  0.000638  ( 0.021212  0.003804 -0.013177)
 25:    677.42   0.001715    8.66  0.000790  (-0.022029 -0.008593 -0.015189)
 26:    746.36   0.001102    5.57  0.000461  (-0.013565  0.016002 -0.004528)
 27:    763.73   0.007596   38.39  0.003104  (-0.023404  0.047665  0.016854)
 28:    778.28   0.008749   44.21  0.003508  ( 0.018843  0.053555  0.016878)
 29:    883.49   0.003560   17.99  0.001257  ( 0.005488  0.025773 -0.023729)
 30:    909.34   0.004407   22.27  0.001512  ( 0.029146  0.014220 -0.021464)
 31:    944.21   0.002408   12.17  0.000796  ( 0.000936 -0.022188  0.017396)
 32:    970.46   0.003520   17.79  0.001132  (-0.022782  0.010287 -0.022517)
 33:    989.32   0.010190   51.50  0.003214  (-0.051728 -0.011955  0.019892)
 34:   1001.99   0.021494  108.62  0.006694  ( 0.000946 -0.033928  0.074445)
 35:   1028.29   0.002326   11.76  0.000706  (-0.019157 -0.007246 -0.016927)
 36:   1047.41   0.000420    2.12  0.000125  (-0.001861 -0.009089  0.006256)
 37:   1087.12   0.003178   16.06  0.000912  (-0.023305 -0.002028  0.019107)
 38:   1188.92   0.002885   14.58  0.000757  (-0.007011  0.019232 -0.018392)
 39:   1205.90   0.002504   12.65  0.000648  ( 0.020592  0.014550  0.003501)
 40:   1250.45   0.019444   98.26  0.004853  (-0.065341  0.015588  0.018442)
 41:   1261.49   0.004679   23.65  0.001158  ( 0.019410 -0.006940  0.027068)
 42:   1300.30   0.000825    4.17  0.000198  (-0.000056  0.009783  0.010119)
 43:   1317.93   0.003405   17.21  0.000806  ( 0.019475  0.004420  0.020186)
 44:   1360.45   0.003978   20.10  0.000912  ( 0.024287 -0.005656  0.017046)
 45:   1373.21   0.029734  150.26  0.006757  (-0.079697  0.011434 -0.016570)
 46:   1386.60   0.003298   16.67  0.000742  (-0.026490  0.003715 -0.005174)
 47:   1395.33   0.006045   30.55  0.001352  ( 0.016953  0.001172 -0.032607)
 48:   1407.55   0.005064   25.59  0.001123  (-0.023154  0.000804 -0.024206)
 49:   1409.87   0.010809   54.62  0.002392  (-0.025044  0.017778 -0.038068)
 50:   1440.48   0.011932   60.30  0.002585  (-0.047211  0.003907  0.018463)
 51:   1479.97   0.001997   10.09  0.000421  ( 0.012629 -0.016175 -0.000188)
 52:   1483.23   0.002612   13.20  0.000549  ( 0.019033  0.008913 -0.010382)
 53:   1491.99   0.000893    4.51  0.000187  (-0.002846 -0.010501 -0.008274)
 54:   1514.59   0.000381    1.93  0.000079  ( 0.004080  0.006191 -0.004852)
 55:   1520.24   0.000995    5.03  0.000204  ( 0.014028 -0.000182  0.002742)
 56:   1584.30   0.003755   18.98  0.000740  ( 0.017250 -0.007117 -0.019784)
 57:   1619.86   0.001147    5.80  0.000221  ( 0.002875 -0.006421 -0.013093)
 58:   2978.16   0.011160   56.40  0.001169  (-0.031624 -0.008454  0.009892)
 59:   3003.79   0.004382   22.14  0.000455  (-0.015911 -0.001938 -0.014082)
 60:   3015.21   0.004659   23.54  0.000482  ( 0.004732  0.020879  0.004884)
 61:   3044.89   0.005005   25.29  0.000513  ( 0.000439  0.020277  0.010081)
 62:   3053.36   0.003271   16.53  0.000334  ( 0.004014  0.016683 -0.006317)
 63:   3092.40   0.001878    9.49  0.000189  ( 0.007727  0.003886  0.010708)
 64:   3093.74   0.007501   37.91  0.000757  ( 0.027001 -0.005245 -0.000087)
 65:   3116.76   0.002526   12.77  0.000253  ( 0.004634 -0.006395 -0.013804)
 66:   3474.39   0.057003  288.07  0.005120  (-0.018226  0.009972  0.068471)
 67:   3732.65   0.004225   21.35  0.000353  (-0.004033 -0.015204  0.010286)
 68:   3734.71   0.003064   15.48  0.000256  (-0.000354  0.015454 -0.004134)

* The epsilon (eps) is given for a Dirac delta lineshape.
** The dipole moment derivative (T) already includes vibrational overlap.

The first frequency considered to be a vibration is 6
The total number of vibrations considered is 63


--------------------------
THERMOCHEMISTRY AT 298.15K
--------------------------

Temperature         ...   298.15 K
Pressure            ...     1.00 atm
Total Mass          ...   169.18 AMU
Quasi RRHO          ...     True
Cut-Off Frequency   ...     1.00 cm^-1

Throughout the following assumptions are being made:
  (1) The electronic state is orbitally nondegenerate
  (2) There are no thermally accessible electronically excited states
  (3) Hindered rotations indicated by low frequency modes are not
      treated as such but are treated as vibrations and this may
      cause some error
  (4) All equations used are the standard statistical mechanics
      equations for an ideal gas
  (5) All vibrations are strictly harmonic

freq.      75.79  E(vib)   ...       0.49 
freq.      80.75  E(vib)   ...       0.48 
freq.     101.34  E(vib)   ...       0.46 
freq.     121.64  E(vib)   ...       0.44 
freq.     129.11  E(vib)   ...       0.43 
freq.     209.57  E(vib)   ...       0.34 
freq.     232.62  E(vib)   ...       0.32 
freq.     278.69  E(vib)   ...       0.28 
freq.     290.88  E(vib)   ...       0.27 
freq.     318.95  E(vib)   ...       0.25 
freq.     347.35  E(vib)   ...       0.23 
freq.     356.58  E(vib)   ...       0.22 
freq.     413.51  E(vib)   ...       0.19 
freq.     440.23  E(vib)   ...       0.17 
freq.     494.99  E(vib)   ...       0.14 
freq.     524.30  E(vib)   ...       0.13 
freq.     545.33  E(vib)   ...       0.12 
freq.     582.62  E(vib)   ...       0.11 
freq.     640.45  E(vib)   ...       0.09 
freq.     677.42  E(vib)   ...       0.08 
freq.     746.36  E(vib)   ...       0.06 
freq.     763.73  E(vib)   ...       0.06 
freq.     778.28  E(vib)   ...       0.05 
freq.     883.49  E(vib)   ...       0.04 
freq.     909.34  E(vib)   ...       0.03 
freq.     944.21  E(vib)   ...       0.03 
freq.     970.46  E(vib)   ...       0.03 
freq.     989.32  E(vib)   ...       0.02 
freq.    1001.99  E(vib)   ...       0.02 
freq.    1028.29  E(vib)   ...       0.02 
freq.    1047.41  E(vib)   ...       0.02 
freq.    1087.12  E(vib)   ...       0.02 
freq.    1188.92  E(vib)   ...       0.01 
freq.    1205.90  E(vib)   ...       0.01 
freq.    1250.45  E(vib)   ...       0.01 
freq.    1261.49  E(vib)   ...       0.01 
freq.    1300.30  E(vib)   ...       0.01 
freq.    1317.93  E(vib)   ...       0.01 
freq.    1360.45  E(vib)   ...       0.01 
freq.    1373.21  E(vib)   ...       0.01 
freq.    1386.60  E(vib)   ...       0.00 
freq.    1395.33  E(vib)   ...       0.00 
freq.    1407.55  E(vib)   ...       0.00 
freq.    1409.87  E(vib)   ...       0.00 
freq.    1440.48  E(vib)   ...       0.00 
freq.    1479.97  E(vib)   ...       0.00 
freq.    1483.23  E(vib)   ...       0.00 
freq.    1491.99  E(vib)   ...       0.00 
freq.    1514.59  E(vib)   ...       0.00 
freq.    1520.24  E(vib)   ...       0.00 
freq.    1584.30  E(vib)   ...       0.00 
freq.    1619.86  E(vib)   ...       0.00 
freq.    2978.16  E(vib)   ...       0.00 
freq.    3003.79  E(vib)   ...       0.00 
freq.    3015.21  E(vib)   ...       0.00 
freq.    3044.89  E(vib)   ...       0.00 
freq.    3053.36  E(vib)   ...       0.00 
freq.    3092.40  E(vib)   ...       0.00 
freq.    3093.74  E(vib)   ...       0.00 
freq.    3116.76  E(vib)   ...       0.00 
freq.    3474.39  E(vib)   ...       0.00 
freq.    3732.65  E(vib)   ...       0.00 
freq.    3734.71  E(vib)   ...       0.00 

------------
INNER ENERGY
------------

The inner energy is: U= E(el) + E(ZPE) + E(vib) + E(rot) + E(trans)
    E(el)   - is the total energy from the electronic structure calculation
              = E(kin-el) + E(nuc-el) + E(el-el) + E(nuc-nuc)
    E(ZPE)  - the the zero temperature vibrational energy from the frequency calculation
    E(vib)  - the the finite temperature correction to E(ZPE) due to population
              of excited vibrational states
    E(rot)  - is the rotational thermal energy
    E(trans)- is the translational thermal energy

Summary of contributions to the inner energy U:
Electronic energy                ...   -591.62750482 Eh
Zero point energy                ...      0.18531723 Eh     116.29 kcal/mol
Thermal vibrational correction   ...      0.00913740 Eh       5.73 kcal/mol
Thermal rotational correction    ...      0.00141627 Eh       0.89 kcal/mol
Thermal translational correction ...      0.00141627 Eh       0.89 kcal/mol
-----------------------------------------------------------------------
Total thermal energy                   -591.43021765 Eh


Summary of corrections to the electronic energy:
(perhaps to be used in another calculation)
Total thermal correction                  0.01196994 Eh       7.51 kcal/mol
Non-thermal (ZPE) correction              0.18531723 Eh     116.29 kcal/mol
-----------------------------------------------------------------------
Total correction                          0.19728718 Eh     123.80 kcal/mol


--------
ENTHALPY
--------

The enthalpy is H = U + kB*T
                kB is Boltzmann's constant
Total thermal energy              ...   -591.43021765 Eh 
Thermal Enthalpy correction       ...      0.00094421 Eh       0.59 kcal/mol
-----------------------------------------------------------------------
Total Enthalpy                    ...   -591.42927344 Eh


Note: Only C1 symmetry has been detected, increase convergence thresholds 
      if your molecule has a higher symmetry. Symmetry factor of 1.0 is   
      used for the rotational entropy correction. 
 

Note: Rotational entropy computed according to Herzberg 
Infrared and Raman Spectra, Chapter V,1, Van Nostrand Reinhold, 1945 
Point Group:  C1, Symmetry Number:   1  
Rotational constants in cm-1:     0.042255     0.027556     0.017660 

Vibrational entropy computed according to the QRRHO of S. Grimme
Chem.Eur.J. 2012 18 9955 using a reference frequency of 100.0 cm-1


-------
ENTROPY
-------

The entropy contributions are T*S = T*(S(el)+S(vib)+S(rot)+S(trans))
     S(el)   - electronic entropy
     S(vib)  - vibrational entropy
     S(rot)  - rotational entropy
     S(trans)- translational entropy
The entropies will be listed as multiplied by the temperature to get
units of energy

Electronic entropy                ...      0.00000000 Eh      0.00 kcal/mol
Vibrational entropy               ...      0.01567986 Eh      9.84 kcal/mol
Rotational entropy                ...      0.01460562 Eh      9.17 kcal/mol
Translational entropy             ...      0.01961591 Eh     12.31 kcal/mol
-----------------------------------------------------------------------
Final entropy term                ...      0.04990139 Eh     31.31 kcal/mol

In case the symmetry of your molecule has not been determined correctly
or in case you have a reason to use a different symmetry number we print 
out the resulting rotational entropy values for sn=1,12:

 non-linear molecules -----------------------------------
|  sn= 1 | S(rot)=       0.01460562 Eh      9.17 kcal/mol|
|  sn= 2 | S(rot)=       0.01395116 Eh      8.75 kcal/mol|
|  sn= 3 | S(rot)=       0.01356833 Eh      8.51 kcal/mol|
|  sn= 4 | S(rot)=       0.01329670 Eh      8.34 kcal/mol|
|  sn= 5 | S(rot)=       0.01308602 Eh      8.21 kcal/mol|
|  sn= 6 | S(rot)=       0.01291387 Eh      8.10 kcal/mol|
|  sn= 7 | S(rot)=       0.01276832 Eh      8.01 kcal/mol|
|  sn= 8 | S(rot)=       0.01264225 Eh      7.93 kcal/mol|
|  sn= 9 | S(rot)=       0.01253104 Eh      7.86 kcal/mol|
|  sn=10 | S(rot)=       0.01243156 Eh      7.80 kcal/mol|
|  sn=11 | S(rot)=       0.01234157 Eh      7.74 kcal/mol|
|  sn=12 | S(rot)=       0.01225941 Eh      7.69 kcal/mol|
 linear molecules ---------------------------------------
|  Dinfh | S(rot)=       0.00913695 Eh      5.73 kcal/mol|
|  Cinfv | S(rot)=       0.00979140 Eh      6.14 kcal/mol|
 --------------------------------------------------------


-------------------
GIBBS FREE ENERGY
-------------------

The Gibbs free energy is G = H - T*S

Total enthalpy                    ...   -591.42927344 Eh 
Total entropy correction          ...     -0.04990139 Eh    -31.31 kcal/mol
-----------------------------------------------------------------------
Final Gibbs free energy         ...   -591.47917483 Eh

For completeness - the Gibbs free energy minus the electronic energy
G-E(el)                           ...      0.14833000 Eh     93.08 kcal/mol


Maximum memory used throughout the entire PROP-calculation: 69.6 MB

--------------------------------
SUGGESTED CITATIONS FOR THIS RUN
--------------------------------

Below you find a list of papers that are relevant to this ORCA run
We neither can nor want to force you to cite these papers, but we appreciate if you do
You receive ORCA, which is the product of decades of hard work by many enthusiastic individuals, for free
The only thing we kindly ask in return is that you cite our papers,
We deeply appreciate it, if you show your appreciation for ORCA by not just citing the generic ORCA reference.

Please note that relegating all ORCA citations to the supporting information does *not* help us.
SI sections are not indexed - citations you put there will not count into any citation statistics
But we need these citations in order to attract the funding resources that allow us to do what we are doing

Therefore, if you are a happy ORCA user, please consider citing a few of the papers listed below in the main body of your paper

In addition to the list printed below, the program has created the file m1_00_Vitamin_B6-GFN2_000-B97-3C-TZ.bibtex that contains the list in bibtex format
You can import this file easily into all common literature databanks and citation aid programs


List of essential papers. We consider these as the minimum necessary citations

  1. Neese,F.
     Software update: the ORCA program system, version 5.0
     WIRES Comput. Molec. Sci., 2022 12(1)e1606
     doi.org/10.1002/wcms.1606

List of papers to cite with high priority. The work reported in these papers was absolutely
necessary for this run to complete.
Our perspective: the developers of density functionals and basis sets usually get cited in chemistry papers
Good! But without the algorithms to do something with them, the functionals or basis sets would not do anything.
Hence, in our opinion, the algorithm design and method developments papers are equally worthy of getting cited

  1. Neese,F.
     An improvement of the resolution of the identity approximation for the formation of the Coulomb matrix
     J. Comp. Chem., 2003 24(14)1740-1747
     doi.org/10.1002/jcc.10318
  2. Bykov,D.; Petrenko,T.; Izsak,R.; Kossmann,S.; Becker,U.; Valeev,E.; Neese,F.
     Efficient implementation of the analytic second derivatives of Hartree-Fock and hybrid DFT energies: a detailed analysis of different approximations
     Molec. Phys., 2015 113 1961-1977
     doi.org/10.1080/00268976.2015.1025114
  3. Neese,F.
     The SHARK Integral Generation and Digestion System
     J. Comp. Chem., 2022  1-16
     doi.org/10.1002/jcc.26942
  4. Grimme,S.; Antony,J.; Ehrlich,S.; Krieg,H.
     A consistent and accurate ab initio parametrization of density functional dispersion correction (DFT-D) for the 94 elements H-Pu
     J. Chem. Phys., 2010 132 154104
     doi.org/10.1063/1.3382344
  5. Grimme,S.; Ehrlich,S.; Goerigk,L.
     Effect of the damping function in dispersion corrected density functional theory
     J. Comput. Chem., 2011 32(7)1456-1465
     doi.org/10.1002/jcc.21759

List of suggested additional citations. These are papers that are important in the 'surrounding' of 
of this run, or papers that preceded the highly important papers. If you like your results we are grateful for a citation.

  1. Neese,F.
     The ORCA program system
     WIRES Comput. Molec. Sci., 2012 2(1)73-78
     doi.org/10.1002/wcms.81
  2. Neese,F.
     Software update: the ORCA program system, version 4.0
     WIRES Comput. Molec. Sci., 2018 8(1)1-6
     doi.org/10.1002/wcms.1327
  3. Neese,F.; Wennmohs,F.; Becker,U.; Riplinger,C.
     The ORCA quantum chemistry program package
     J. Chem. Phys., 2020 152 Art. No. L224108
     doi.org/10.1063/5.0004608

List of optional additional citations

  1. Neese,F.
     Approximate second-order SCF convergence for spin unrestricted wavefunctions
     Chem. Phys. Lett., 2000 325(1-3)93-98
     doi.org/10.1016/s0009-2614(00)00662-x

Timings for individual modules:

Sum of individual times          ...      150.475 sec (=   2.508 min)
Startup calculation              ...       23.416 sec (=   0.390 min)  15.6 %
SCF iterations                   ...       35.286 sec (=   0.588 min)  23.4 %
Property integrals               ...       33.474 sec (=   0.558 min)  22.2 %
SCF Response                     ...       23.346 sec (=   0.389 min)  15.5 %
Property calculations            ...       14.896 sec (=   0.248 min)   9.9 %
SCF Gradient evaluation          ...       20.010 sec (=   0.333 min)  13.3 %
Geometry relaxation              ...        0.047 sec (=   0.001 min)   0.0 %
                             ****ORCA TERMINATED NORMALLY****
TOTAL RUN TIME: 0 days 0 hours 2 minutes 32 seconds 680 msec
