
                                 *****************
                                 * O   R   C   A *
                                 *****************

                                            #,                                       
                                            ###                                      
                                            ####                                     
                                            #####                                    
                                            ######                                   
                                           ########,                                 
                                     ,,################,,,,,                         
                               ,,#################################,,                 
                          ,,##########################################,,             
                       ,#########################################, ''#####,          
                    ,#############################################,,   '####,        
                  ,##################################################,,,,####,       
                ,###########''''           ''''###############################       
              ,#####''   ,,,,##########,,,,          '''####'''          '####       
            ,##' ,,,,###########################,,,                        '##       
           ' ,,###''''                  '''############,,,                           
         ,,##''                                '''############,,,,        ,,,,,,###''
      ,#''                                            '''#######################'''  
     '                                                          ''''####''''         
             ,#######,   #######,   ,#######,      ##                                
            ,#'     '#,  ##    ##  ,#'     '#,    #''#        ,####,   ,####,        
            ##       ##  ##   ,#'  ##            #'  '#       #'       #'  '#        
            ##       ##  #######   ##           ,######,      #####,   #    #        
            '#,     ,#'  ##    ##  '#,     ,#' ,#      #,     #,   #   #,  ,#        
             '#######'   ##     ##  '#######'  #'      '#     '####' # '####'        



                #########################################################
                #                        -***-                          #
                #          Department of theory and spectroscopy        #
                #                                                       #
                #                      Frank Neese                      #
                #                                                       #
                #     Directorship, Architecture, Infrastructure        #
                #                    SHARK, DRIVERS                     #
                #        Core code/Algorithms in most modules           #
                #                                                       #
                #        Max Planck Institute fuer Kohlenforschung      #
                #                Kaiser Wilhelm Platz 1                 #
                #                 D-45470 Muelheim/Ruhr                 #
                #                      Germany                          #
                #                                                       #
                #                  All rights reserved                  #
                #                        -***-                          #
                #########################################################


                         Program Version 6.0.1  -  RELEASE   -


 With contributions from (in alphabetic order):
[Max-Planck-Institut fuer Kohlenforschung]                               
  Daniel Aravena         : Magnetic Suceptibility                        
  Michael Atanasov       : Ab Initio Ligand Field Theory (pilot matlab implementation)
  Alexander A. Auer      : GIAO ZORA, VPT2 properties, NMR spectrum      
  Ute Becker             : All parallelization in ORCA, NUMFREQ, NUMCALC 
  Giovanni Bistoni       : ED, misc. LED, open-shell LED, HFLD           
  Martin Brehm           : Molecular dynamics                            
  Dmytro Bykov           : pre 5.0 version of the SCF Hessian            
  Marcos Casanova-Páez   : Triplet and SCS-CIS(D). UHF-(DLPNO)-IP/EA/STEOM-CCSD. UHF-CVS-IP/STEOM-CCSD   
  Vijay G. Chilkuri      : MRCI spin determinant printing, contributions to CSF-ICE 
  Pauline Colinet        : FMM embedding                                 
  Dipayan Datta          : RHF DLPNO-CCSD density                        
  Achintya Kumar Dutta   : EOM-CC, STEOM-CC                              
  Nicolas Foglia         : Exact transition moments, OPA infrastructure, MCD improvements    
  Dmitry Ganyushin       : Spin-Orbit,Spin-Spin,Magnetic field MRCI      
  Miquel Garcia-Rates    : C-PCM and meta-GGA Hessian, CCSD/C-PCM, Gaussian charge scheme 
  Tiago L. C. Gouveia    : GS-ROHF, GS-ROCIS                             
  Yang Guo               : DLPNO-NEVPT2, F12-NEVPT2, CIM, IAO-localization        
  Andreas Hansen         : Spin unrestricted coupled pair/coupled cluster methods 
  Ingolf Harden          : AUTO-CI MPn and infrastructure                
  Benjamin Helmich-Paris : MC-RPA, TRAH-(SCF,CASSCF), AVAS, COSX integrals, SCF dyn. polar. 
  Lee Huntington         : MR-EOM, pCC                                   
  Robert Izsak           : Overlap fitted RIJCOSX, COSX-SCS-MP3, EOM     
  Riya Kayal             : Wick's Theorem for AUTO-CI, AUTO-CI UHF-CCSDT 
  Emily Kempfer          : AUTO-CI, RHF CISDT and CCSDT                  
  Christian Kollmar      : KDIIS, OOCD, Brueckner-CCSD(T), CCSD density, CASPT2, CASPT2-K, improved NEVPT2 
  Axel Koslowski         : Symmetry handling                             
  Simone Kossmann        : meta-GGA functionals, TD-DFT gradient, OOMP2, (MP2 Hessian; deprecated post 5.0) 
  Lucas Lang             : DCDCAS                                        
  Marvin Lechner         : AUTO-CI (C++ implementation), FIC-MRCC        
  Spencer Leger          : CASSCF response                               
  Dagmar Lenk            : GEPOL surface, SMD, ORCA-2-JSON               
  Dimitrios Liakos       : Extrapolation schemes; Compound Job, initial MDCI parallelization 
  Dimitrios Manganas     : Further ROCIS development; embedding schemes. LFT, Crystal Embedding 
  Dimitrios Pantazis     : SARC Basis sets                               
  Anastasios Papadopoulos: AUTO-CI, single reference methods and gradients 
  Taras Petrenko         : pre 6.0 DFT Hessian and TD-DFT gradient, (ASA, deprecated), ECA, 1-Electron XAS/XES, NRVS 
  Peter Pinski           : DLPNO-MP2, DLPNO-MP2 Gradient                 
  Christoph Reimann      : Effective Core Potentials                     
  Marius Retegan         : Local ZFS, SOC                                
  Christoph Riplinger    : Optimizer, TS searches, QM/MM, DLPNO-CCSD(T), (RO)-DLPNO pert. Triples 
  Michael Roemelt        : Original ROCIS implementation                 
  Masaaki Saitow         : Open-shell DLPNO-CCSD energy and density      
  Barbara Sandhoefer     : DKH picture change effects                    
  Kantharuban Sivalingam : CASSCF convergence/infrastructure, NEVPT2 and variants, FIC-MRCI 
  Bernardo de Souza      : ESD, SOC TD-DFT                               
  Georgi L. Stoychev     : AutoAux, RI-MP2 NMR, DLPNO-MP2 response, X2C  
  Van Anh Tran           : RI-MP2 g-tensors                              
  Willem Van den Heuvel  : Paramagnetic NMR                              
  Zikuan Wang            : NOTCH, Electric field optimization            
  Frank Wennmohs         : Technical directorship and infrastructure     
  Hang Xu                : AUTO-CI-Response properties                   
                                                                         
[FACCTs GmbH]                                                            
  Markus Bursch, Miquel Garcia-Rates, Christoph Riplinger, Bernardo de Souza, Georgi L. Stoychev 
                                                                 
  APM, Basis sets (HGBS, AHGBS, def-TZVP (Ac-Lr), def2-XVPD (La-Lu)), CI-OPT, improved COSX, DLPNO-Multilevel,           
  DOCKER, DRACO, updates on ESD, GOAT, IRC, LR-CPCM, MBIS, meta-GGA TD-DFT gradient, ML-optimized integration grids, 
  MM, NACMEs, nearIR, NEB, NEB-TS, NL-DFT gradient (VV10), 2- and 3-layer-ONIOM, interface openCOSMO-RS, QMMM,   
  Crystal-QMMM, SF, symmetry and pop. for TD-DFT, r2SCAN hybrids, SOLVATOR                                   
                                                                         
[Other institutions]                                                     
  V. Asgeirsson          : NEB                                           
  Christoph Bannwarth    : sTDA-DFT, sTD-DFT, PBEh-3c, B97-3c, D3        
  Sebastian Ehlert       : rSCAN, r2SCAN, r2SCAN-3c, D4, dhf basis sets  
  Marvin Friede          : D4 for Fr, Ra, Ac-Lr                          
  Lars Goerigk           : TD-DFT with DH, B97 family of functionals     
  Stefan Grimme          : VdW corrections, initial TS optimization, DFT functionals, gCP, sTDA/sTD-DF 
  Waldemar Hujo          : DFT-NL                                        
  H. Jonsson             : NEB                                           
  Holger Kruse           : gCP                                           
  Marcel Mueller         : wB97X-3c, vDZP basis set                      
  Hagen Neugebauer       : wr2SCAN                                       
  Tobias Risthaus        : range-separated hybrid DFT                    
  Lukas Wittmann         : regularized MP2, r2SCAN double-hybrids, wr2SCAN        
                                                                         
We gratefully acknowledge several colleagues who have allowed us to      
interface, adapt or use parts of their codes:                            
  Ed Valeev, F. Pavosevic, A. Kumar             : LibInt (2-el integral package), F12 methods 
  Garnet Chan, S. Sharma, J. Yang, R. Olivares  : DMRG                   
  Ulf Ekstrom                                   : XCFun DFT Library      
  Mihaly Kallay                                 : mrcc  (arbitrary order and MRCC methods)
  Frank Weinhold                                : gennbo (NPA and NBO analysis)           
  Simon Mueller                                 : openCOSMO-RS                            
  Christopher J. Cramer and Donald G. Truhlar   : smd solvation model                     
  S Lehtola, MJT Oliveira, MAL Marques          : LibXC Library                           
  Liviu Ungur et al                             : ANISO software                          


 Your calculation uses the libint2 library for the computation of 2-el integrals
 For citations please refer to: http://libint.valeyev.net

 Your ORCA version has been built with support for libXC version: 6.2.2
 For citations please refer to: https://libxc.gitlab.io

 This ORCA versions uses:
   CBLAS   interface :  Fast vector & matrix operations
   LAPACKE interface :  Fast linear algebra routines
   SCALAPACK package :  Parallel linear algebra routines
   Shared memory     :  Shared parallel matrices
   BLAS/LAPACK       :  OpenBLAS 0.3.27  USE64BITINT DYNAMIC_ARCH NO_AFFINITY Zen SINGLE_THREADED
        Core in use  :  Zen
   Copyright (c) 2011-2014, The OpenBLAS Project


NOTE: MaxCore=6000 MB was set to SCF,MP2,MDCI,CIPSI,MRCI and CIS
      => If you want to overwrite this, your respective input block should be placed after the MaxCore statement
Your calculation utilizes the atom-pairwise dispersion correction
with the Becke-Johnson damping scheme (D3BJ)


Your calculation employs the composite approach B97-3c by Grimme and coworkers.
For the correct reference, please check the publication list of the Grimme group:
http://www.thch.uni-bonn.de/tc/index.php?section=publikationen&subsection=grimme#2017
   

XCFun DFT library Copyright 2009-2010 Ulf Ekstrom and contributors.
See http://admol.org/xcfun for more information.
This is free software; see the source code for copying conditions.
There is ABSOLUTELY NO WARRANTY; not even for MERCHANTABILITY or FITNESS FOR A PARTICULAR PURPOSE.
For details see the documentation.
Scientific users of this library should cite U. Ekstrom, L. Visscher, R. Bast, A. J. Thorvaldsen and K. Ruud;
J.Chem.Theor.Comp. 2010, DOI: 10.1021/ct100117s
XCFun Version 0.99 

================================================================================

----- Orbital basis set information -----
Your calculation utilizes the basis: def2-mTZVP
----- AuxJ basis set information -----
Your calculation utilizes the basis: def2-mTZVP/J
================================================================================
                                        WARNINGS
                       Please study these warnings very carefully!
================================================================================


WARNING: Geometry Optimization
  ===> : Switching off AutoStart
         For restart on a previous wavefunction, please use MOREAD

================================================================================
                                       INPUT FILE
================================================================================
NAME = m1_00_Vitamin_B6-GFN2_001-B97-3C-TZ.inp
|  1> %pal nprocs 16 end
|  2> %MaxCore 6000
|  3> # put your comments here
|  4> ! B97-3C  OPT  FREQ DEFGRID3 NOTRAH
|  5> %scf MaxIter 800 end
|  6> %output
|  7> Print [P_Hirshfeld] 1
|  8> end
|  9> %geom
| 10> MaxIter 3000
| 11>  TolE 1e-6 #TolE 5e-6 Energy change (a.u.)
| 12>  TolRMSG 3e-5 #TolRMSG 1e-4 RMS gradient (a.u.)
| 13>  TolMaxG 1e-4 #TolMaxG 3e-3 Max. element of gradient (a.u.)
| 14>  TolRMSD 2e-3 #TolRMSD 2e-3 RMS displacement (a.u.)
| 15>  TolMaxD 4e-3 #TolMaxD 4e-3 Max. displacement (a.u.)
| 16> end
| 17> * xyz 0 1
| 18>  O -1.37789081915676 0.03132754078661 1.98073966013677
| 19>  O -1.46348204578846 2.45545758239095 0.83715586105977
| 20>  O 1.44020219292221 2.18979222280786 -2.06091836989842
| 21>  N 1.21788717970850 -1.78087254996372 0.30358305845202
| 22>  C -0.28845657137144 0.52003799806203 -0.12043766305755
| 23>  C 0.66915670053410 0.10827569938377 -1.05460061563208
| 24>  C -0.47283949504294 -0.26295278321948 1.02133946899866
| 25>  C 0.31276972325690 -1.41938549304448 1.19042040831760
| 26>  C -1.13535769427579 1.75330573692097 -0.35486519314040
| 27>  C 0.94010781714795 0.89007479872488 -2.31643454108521
| 28>  C 1.39177971428590 -1.04229615899558 -0.77936803820461
| 29>  C 0.12596233347386 -2.27446060898345 2.40009033989471
| 30>  H -0.63713879903860 2.42483318946012 -1.05779286690620
| 31>  H -2.09828914602747 1.45237177491616 -0.78470983458614
| 32>  H 1.64281690828715 0.32824125455654 -2.94547703538594
| 33>  H 0.01648431188977 1.03775542027597 -2.88308990203726
| 34>  H 2.14804476641967 -1.39875578765583 -1.46675289387578
| 35>  H -0.89394524475774 -2.65344700471912 2.43058591723552
| 36>  H 0.82650148863264 -3.10258393777710 2.37127546266871
| 37>  H 0.28275173176494 -1.68452945018849 3.30131657209478
| 38>  H -1.77560913980472 0.89944852079353 1.77925013506441
| 39>  H -0.67121090436158 2.89567062040194 1.16363874861750
| 40>  H 2.28734599130183 2.10695241506616 -1.60948667873081
| 41> *
| 42> 
| 43> 
| 44> 
| 45> 
| 46>                          ****END OF INPUT****
================================================================================

                       *****************************
                       * Geometry Optimization Run *
                       *****************************

Geometry optimization settings:
Update method            Update   .... BFGS
Choice of coordinates    CoordSys .... (2022) Redundant Internals
Initial Hessian          InHess   .... Almloef's Model
Max. no of cycles        MaxIter  .... 3000

Convergence Tolerances:
Energy Change            TolE     ....  1.0000e-06 Eh
Max. Gradient            TolMAXG  ....  1.0000e-04 Eh/bohr
RMS Gradient             TolRMSG  ....  3.0000e-05 Eh/bohr
Max. Displacement        TolMAXD  ....  4.0000e-03 bohr
RMS Displacement         TolRMSD  ....  2.0000e-03 bohr
Strict Convergence                .... False

------------------------------------------------------------------------------
                        ORCA OPTIMIZATION COORDINATE SETUP
------------------------------------------------------------------------------

The optimization will be done in redundant internal coordinates (2022)
Making redundant internal coordinates   ...  (2022 redundants) done
Evaluating the initial hessian          ...  (Almloef) done
Evaluating the coordinates              ...  done
Calculating the B-matrix                .... done
Calculating the G-matrix                .... done
Diagonalizing the G-matrix              .... done
Small eigenvalue found = 2.871e-02
The first mode is                       ....   41
The number of degrees of freedom        ....   63

    -----------------------------------------------------------------
                    Redundant Internal Coordinates


    -----------------------------------------------------------------
         Definition                    Initial Value    Approx d2E/dq
    -----------------------------------------------------------------
      1. B(C   5,C   4)                  1.3997         0.602868   
      2. B(C   6,O   0)                  1.3514         0.644951   
      3. B(C   6,C   4)                  1.3967         0.609641   
      4. B(C   7,C   6)                  1.4082         0.584328   
      5. B(C   7,N   3)                  1.3177         0.729778   
      6. B(C   8,C   4)                  1.5143         0.395734   
      7. B(C   8,O   1)                  1.4218         0.497846   
      8. B(C   9,C   5)                  1.5089         0.403649   
      9. B(C   9,O   2)                  1.4159         0.508890   
     10. B(C  10,C   5)                  1.3863         0.633410   
     11. B(C  10,N   3)                  1.3223         0.717567   
     12. B(C  11,C   7)                  1.4931         0.427806   
     13. B(H  12,C   8)                  1.0924         0.356975   
     14. B(H  13,C   8)                  1.0966         0.351455   
     15. B(H  14,C   9)                  1.0978         0.349936   
     16. B(H  15,C   9)                  1.0936         0.355353   
     17. B(H  16,C  10)                  1.0824         0.370353   
     18. B(H  17,C  11)                  1.0885         0.362127   
     19. B(H  18,C  11)                  1.0851         0.366683   
     20. B(H  19,C  11)                  1.0885         0.362103   
     21. B(H  20,O   1)                  1.8456         0.020095   
     22. B(H  20,O   0)                  0.9759         0.490426   
     23. B(H  21,O   1)                  0.9634         0.513568   
     24. B(H  22,O   2)                  0.9635         0.513340   
     25. A(C   6,O   0,H  20)          108.6674         0.368909   
     26. A(C   8,O   1,H  21)          108.6625         0.355748   
     27. A(C   9,O   2,H  22)          108.4326         0.357049   
     28. A(C   7,N   3,C  10)          119.2279         0.453012   
     29. A(C   5,C   4,C   8)          121.2569         0.398752   
     30. A(C   6,C   4,C   8)          120.6162         0.399537   
     31. A(C   5,C   4,C   6)          118.0984         0.430579   
     32. A(C   4,C   5,C  10)          117.9224         0.433549   
     33. A(C   4,C   5,C   9)          121.9066         0.400144   
     34. A(C   9,C   5,C  10)          120.1623         0.403644   
     35. A(O   0,C   6,C   7)          117.8535         0.429696   
     36. A(C   4,C   6,C   7)          119.0043         0.428173   
     37. A(O   0,C   6,C   4)          123.1419         0.432982   
     38. A(N   3,C   7,C  11)          118.3000         0.415486   
     39. A(N   3,C   7,C   6)          121.8476         0.439359   
     40. A(C   6,C   7,C  11)          119.8521         0.402043   
     41. A(H  12,C   8,H  13)          108.4790         0.289337   
     42. A(C   4,C   8,H  13)          109.1642         0.326100   
     43. A(O   1,C   8,H  13)          105.1588         0.336690   
     44. A(C   4,C   8,H  12)          110.1936         0.326938   
     45. A(O   1,C   8,H  12)          109.9472         0.337565   
     46. A(O   1,C   8,C   4)          113.6697         0.383179   
     47. A(H  14,C   9,H  15)          108.2293         0.288934   
     48. A(C   5,C   9,H  15)          110.5860         0.327761   
     49. A(O   2,C   9,H  15)          105.5366         0.338545   
     50. A(C   5,C   9,H  14)          109.2052         0.326932   
     51. A(O   2,C   9,H  14)          110.3112         0.337679   
     52. A(O   2,C   9,C   5)          112.8380         0.385972   
     53. A(N   3,C  10,C   5)          123.8922         0.444454   
     54. A(C   5,C  10,H  16)          120.7620         0.355881   
     55. A(N   3,C  10,H  16)          115.3442         0.361265   
     56. A(H  17,C  11,H  18)          109.8745         0.291926   
     57. A(C   7,C  11,H  18)          109.5593         0.332647   
     58. A(C   7,C  11,H  17)          109.8360         0.331959   
     59. A(H  18,C  11,H  19)          110.0368         0.291923   
     60. A(H  17,C  11,H  19)          107.4863         0.291350   
     61. A(C   7,C  11,H  19)          110.0226         0.331955   
     62. D(C  10,C   5,C   4,C   6)     -0.9690         0.025068   
     63. D(C   9,C   5,C   4,C   8)      2.0282         0.025068   
     64. D(C   9,C   5,C   4,C   6)   -179.9018         0.025068   
     65. D(C  10,C   5,C   4,C   8)   -179.0390         0.025068   
     66. D(O   0,C   6,C   4,C   5)   -179.2888         0.025667   
     67. D(C   4,C   6,O   0,H  20)     -6.1840         0.030703   
     68. D(C   7,C   6,C   4,C   5)      0.4951         0.025667   
     69. D(O   0,C   6,C   4,C   8)     -1.2059         0.025667   
     70. D(C   7,C   6,O   0,H  20)    174.0297         0.030703   
     71. D(C   7,C   6,C   4,C   8)    178.5781         0.025667   
     72. D(N   3,C   7,C   6,C   4)      0.1531         0.023475   
     73. D(N   3,C   7,C   6,O   0)    179.9485         0.023475   
     74. D(C  11,C   7,N   3,C  10)    179.5109         0.040215   
     75. D(C  11,C   7,C   6,O   0)      0.1439         0.023475   
     76. D(C   6,C   7,N   3,C  10)     -0.2967         0.040215   
     77. D(C  11,C   7,C   6,C   4)   -179.6515         0.023475   
     78. D(H  13,C   8,C   4,C   5)     96.2624         0.011634   
     79. D(H  12,C   8,C   4,C   5)    -22.7733         0.011634   
     80. D(O   1,C   8,C   4,C   6)     35.2801         0.011634   
     81. D(O   1,C   8,C   4,C   5)   -146.6982         0.011634   
     82. D(H  12,C   8,O   1,H  21)    -52.0988         0.021250   
     83. D(H  12,C   8,C   4,C   6)    159.2050         0.011634   
     84. D(C   4,C   8,O   1,H  21)     71.9596         0.021250   
     85. D(H  13,C   8,O   1,H  21)   -168.6928         0.021250   
     86. D(H  14,C   9,C   5,C   4)   -173.8391         0.012082   
     87. D(O   2,C   9,C   5,C  10)   -115.8103         0.012082   
     88. D(O   2,C   9,C   5,C   4)     63.0991         0.012082   
     89. D(H  15,C   9,O   2,H  22)   -176.4453         0.020498   
     90. D(H  14,C   9,O   2,H  22)    -59.7584         0.020498   
     91. D(H  14,C   9,C   5,C  10)      7.2516         0.012082   
     92. D(C   5,C   9,O   2,H  22)     62.6858         0.020498   
     93. D(H  15,C   9,C   5,C   4)    -54.8471         0.012082   
     94. D(H  16,C  10,C   5,C   9)     -0.6473         0.027837   
     95. D(H  16,C  10,C   5,C   4)   -179.5994         0.027837   
     96. D(N   3,C  10,C   5,C   9)    179.8315         0.027837   
     97. D(N   3,C  10,C   5,C   4)      0.8793         0.027837   
     98. D(H  16,C  10,N   3,C   7)   -179.7787         0.038747   
     99. D(C   5,C  10,N   3,C   7)     -0.2339         0.038747   
    100. D(H  19,C  11,C   7,N   3)    122.5125         0.013520   
    101. D(H  18,C  11,C   7,C   6)   -178.7715         0.013520   
    102. D(H  18,C  11,C   7,N   3)      1.4170         0.013520   
    103. D(H  17,C  11,C   7,C   6)     60.4516         0.013520   
    104. D(H  17,C  11,C   7,N   3)   -119.3600         0.013520   
    -----------------------------------------------------------------

Number of atoms                         .... 23
Number of degrees of freedom            .... 104


         *************************************************************
         *                GEOMETRY OPTIMIZATION CYCLE   1            *
         *************************************************************
---------------------------------
CARTESIAN COORDINATES (ANGSTROEM)
---------------------------------
  O     -1.377891    0.031328    1.980740
  O     -1.463482    2.455458    0.837156
  O      1.440202    2.189792   -2.060918
  N      1.217887   -1.780873    0.303583
  C     -0.288457    0.520038   -0.120438
  C      0.669157    0.108276   -1.054601
  C     -0.472839   -0.262953    1.021339
  C      0.312770   -1.419385    1.190420
  C     -1.135358    1.753306   -0.354865
  C      0.940108    0.890075   -2.316435
  C      1.391780   -1.042296   -0.779368
  C      0.125962   -2.274461    2.400090
  H     -0.637139    2.424833   -1.057793
  H     -2.098289    1.452372   -0.784710
  H      1.642817    0.328241   -2.945477
  H      0.016484    1.037755   -2.883090
  H      2.148045   -1.398756   -1.466753
  H     -0.893945   -2.653447    2.430586
  H      0.826501   -3.102584    2.371275
  H      0.282752   -1.684529    3.301317
  H     -1.775609    0.899449    1.779250
  H     -0.671211    2.895671    1.163639
  H      2.287346    2.106952   -1.609487

----------------------------
CARTESIAN COORDINATES (A.U.)
----------------------------
  NO LB      ZA    FRAG     MASS         X           Y           Z
   0 O     8.0000    0    15.999   -2.603836    0.059200    3.743056
   1 O     8.0000    0    15.999   -2.765580    4.640142    1.581995
   2 O     8.0000    0    15.999    2.721588    4.138108   -3.894571
   3 N     7.0000    0    14.007    2.301473   -3.365361    0.573689
   4 C     6.0000    0    12.011   -0.545104    0.982729   -0.227594
   5 C     6.0000    0    12.011    1.264523    0.204611   -1.992906
   6 C     6.0000    0    12.011   -0.893537   -0.496909    1.930052
   7 C     6.0000    0    12.011    0.591049   -2.682250    2.249569
   8 C     6.0000    0    12.011   -2.145515    3.313268   -0.670598
   9 C     6.0000    0    12.011    1.776546    1.681998   -4.377427
  10 C     6.0000    0    12.011    2.630082   -1.969654   -1.472792
  11 C     6.0000    0    12.011    0.238034   -4.298108    4.535513
  12 H     1.0000    0     1.008   -1.204018    4.582271   -1.998939
  13 H     1.0000    0     1.008   -3.965192    2.744585   -1.482887
  14 H     1.0000    0     1.008    3.104474    0.620286   -5.566145
  15 H     1.0000    0     1.008    0.031151    1.961074   -5.448250
  16 H     1.0000    0     1.008    4.059216   -2.643265   -2.771761
  17 H     1.0000    0     1.008   -1.689312   -5.014288    4.593142
  18 H     1.0000    0     1.008    1.561861   -5.863034    4.481061
  19 H     1.0000    0     1.008    0.534323   -3.183299    6.238584
  20 H     1.0000    0     1.008   -3.355415    1.699711    3.362295
  21 H     1.0000    0     1.008   -1.268405    5.472024    2.198959
  22 H     1.0000    0     1.008    4.322457    3.981563   -3.041489

--------------------------------
INTERNAL COORDINATES (ANGSTROEM)
--------------------------------
 O      0   0   0     0.000000000000     0.00000000     0.00000000
 O      1   0   0     2.681700248387     0.00000000     0.00000000
 O      2   1   0     4.111057587722   102.68898150     0.00000000
 N      1   2   3     3.582594988955   106.30450586     1.22468585
 C      1   2   3     2.416743891024    57.37313267   346.76049807
 C      5   1   2     1.399725612792   146.01259736   162.99209862
 C      1   2   3     1.351357663660    85.15124001   355.45237819
 C      4   1   2     1.317721893045    17.91624781   164.28887010
 C      2   1   3     1.421828751225    84.47638993    33.78534608
 C      3   2   1     1.415856024066    86.39172682    41.63015386
 C      4   1   2     1.322314930955   101.31180887   344.07447327
 C      8   4   1     1.493101402497   118.29998569   179.75181186
 H      9   2   1     1.092372876646   109.94715473   204.94098652
 H      9   2   1     1.096615085634   105.15883571    88.34698219
 H     10   3   2     1.097793904956   110.31124690   193.26926363
 H     10   3   2     1.093612474116   105.53664191    76.58239125
 H     11   4   1     1.082357720788   115.34420820   180.14575126
 H     12   8   4     1.088472386661   109.83601043   240.64000900
 H     12   8   4     1.085068501410   109.55925048     1.41695616
 H     12   8   4     1.088489967404   110.02256439   122.51246784
 H      1   2   3     0.975915942703    25.15554162   196.01014396
 H      2   1   3     0.963365017136   104.02210433   285.89424739
 H      3   2   1     0.963486180840   107.23451639   293.44137021

---------------------------
INTERNAL COORDINATES (A.U.)
---------------------------
 O      0   0   0     0.000000000000     0.00000000     0.00000000
 O      1   0   0     5.067679042719     0.00000000     0.00000000
 O      2   1   0     7.768772961573   102.68898150     0.00000000
 N      1   2   3     6.770123377883   106.30450586     1.22468585
 C      1   2   3     4.566984089863    57.37313267   346.76049807
 C      5   1   2     2.645098070811   146.01259736   162.99209862
 C      1   2   3     2.553695893293    85.15124001   355.45237819
 C      4   1   2     2.490133498527    17.91624781   164.28887010
 C      2   1   3     2.686866949150    84.47638993    33.78534608
 C      3   2   1     2.675580130547    86.39172682    41.63015386
 C      4   1   2     2.498813082300   101.31180887   344.07447327
 C      8   4   1     2.821552740892   118.29998569   179.75181186
 H      9   2   1     2.064285572984   109.94715473   204.94098652
 H      9   2   1     2.072302186175   105.15883571    88.34698219
 H     10   3   2     2.074529831855   110.31124690   193.26926363
 H     10   3   2     2.066628072720   105.53664191    76.58239125
 H     11   4   1     2.045359671225   115.34420820   180.14575126
 H     12   8   4     2.056914715126   109.83601043   240.64000900
 H     12   8   4     2.050482304209   109.55925048     1.41695616
 H     12   8   4     2.056947937914   110.02256439   122.51246784
 H      1   2   3     1.844213861435    25.15554162   196.01014396
 H      2   1   3     1.820496049387   104.02210433   285.89424739
 H      3   2   1     1.820725015606   107.23451639   293.44137021

---------------------
BASIS SET INFORMATION
---------------------
There are 4 groups of distinct atoms

 Group   1 Type O   : 11s6p2d contracted to 5s3p2d pattern {62111/411/11}
 Group   2 Type N   : 11s6p1d contracted to 5s3p1d pattern {62111/411/1}
 Group   3 Type C   : 11s6p1d contracted to 5s3p1d pattern {62111/411/1}
 Group   4 Type H   : 5s contracted to 3s pattern {311}

Atom   0O    basis set group =>   1
Atom   1O    basis set group =>   1
Atom   2O    basis set group =>   1
Atom   3N    basis set group =>   2
Atom   4C    basis set group =>   3
Atom   5C    basis set group =>   3
Atom   6C    basis set group =>   3
Atom   7C    basis set group =>   3
Atom   8C    basis set group =>   3
Atom   9C    basis set group =>   3
Atom  10C    basis set group =>   3
Atom  11C    basis set group =>   3
Atom  12H    basis set group =>   4
Atom  13H    basis set group =>   4
Atom  14H    basis set group =>   4
Atom  15H    basis set group =>   4
Atom  16H    basis set group =>   4
Atom  17H    basis set group =>   4
Atom  18H    basis set group =>   4
Atom  19H    basis set group =>   4
Atom  20H    basis set group =>   4
Atom  21H    basis set group =>   4
Atom  22H    basis set group =>   4
---------------------------------
AUXILIARY/J BASIS SET INFORMATION
---------------------------------
There are 4 groups of distinct atoms

 Group   1 Type O   : 8s3p3d contracted to 6s3p3d pattern {311111/111/111}
 Group   2 Type N   : 8s3p3d contracted to 6s3p3d pattern {311111/111/111}
 Group   3 Type C   : 8s3p3d contracted to 6s3p3d pattern {311111/111/111}
 Group   4 Type H   : 5s2p contracted to 3s1p pattern {311/2}

Atom   0O    basis set group =>   1
Atom   1O    basis set group =>   1
Atom   2O    basis set group =>   1
Atom   3N    basis set group =>   2
Atom   4C    basis set group =>   3
Atom   5C    basis set group =>   3
Atom   6C    basis set group =>   3
Atom   7C    basis set group =>   3
Atom   8C    basis set group =>   3
Atom   9C    basis set group =>   3
Atom  10C    basis set group =>   3
Atom  11C    basis set group =>   3
Atom  12H    basis set group =>   4
Atom  13H    basis set group =>   4
Atom  14H    basis set group =>   4
Atom  15H    basis set group =>   4
Atom  16H    basis set group =>   4
Atom  17H    basis set group =>   4
Atom  18H    basis set group =>   4
Atom  19H    basis set group =>   4
Atom  20H    basis set group =>   4
Atom  21H    basis set group =>   4
Atom  22H    basis set group =>   4


           ************************************************************
           *        Program running with 16 parallel MPI-processes    *
           *              working on a common directory               *
           ************************************************************
------------------------------------------------------------------------------
                             ORCA STARTUP CALCULATIONS
                           -- RI-GTO INTEGRALS CHOSEN --
------------------------------------------------------------------------------
------------------------------------------------------------------------------
                   ___                                                        
                  /   \      - P O W E R E D   B Y -                         
                 /     \                                                     
                 |  |  |   _    _      __       _____    __    __             
                 |  |  |  | |  | |    /  \     |  _  \  |  |  /  |          
                  \  \/   | |  | |   /    \    | | | |  |  | /  /          
                 / \  \   | |__| |  /  /\  \   | |_| |  |  |/  /          
                |  |  |   |  __  | /  /__\  \  |    /   |      \           
                |  |  |   | |  | | |   __   |  |    \   |  |\   \          
                \     /   | |  | | |  |  |  |  | |\  \  |  | \   \       
                 \___/    |_|  |_| |__|  |__|  |_| \__\ |__|  \__/        
                                                                              
                      - O R C A' S   B I G   F R I E N D -                    
                                      &                                       
                       - I N T E G R A L  F E E D E R -                       
                                                                              
 v1 FN, 2020, v2 2021, v3 2022-2024                                           
------------------------------------------------------------------------------


----------------------
SHARK INTEGRAL PACKAGE
----------------------

Number of atoms                             ...     23
Number of basis functions                   ...    276
Number of shells                            ...    144
Maximum angular momentum                    ...      2
Integral batch strategy                     ... SHARK/LIBINT Hybrid
RI-J (if used) integral strategy            ... SPLIT-RIJ (Revised 2003 algorithm where possible)
Printlevel                                  ...      1
Contraction scheme used                     ... SEGMENTED contraction
Prescreening option                         ... SCHWARTZ
   Thresh                                   ... 2.500e-11
   Tcut                                     ... 2.500e-12
   Tpresel                                  ... 2.500e-12 
Coulomb Range Separation                    ... NOT USED
Exchange Range Separation                   ... NOT USED
Multipole approximations                    ... NOT USED
Finite Nucleus Model                        ... NOT USED
CABS basis                                  ... NOT available
Auxiliary Coulomb fitting basis             ... AVAILABLE
   # of basis functions in Aux-J            ...    426
   # of shells in Aux-J                     ...    188
   Maximum angular momentum in Aux-J        ...      2
Auxiliary J/K fitting basis                 ... NOT available
Auxiliary Correlation fitting basis         ... NOT available
Auxiliary 'external' fitting basis          ... NOT available

Checking pre-screening integrals            ... done (  0.0 sec) Dimension = 144
Check shell pair data                       ... done (  0.0 sec)
Shell pair information
Shell pair cut-off parameter TPreSel        ...   2.5e-12
Total number of shell pairs                 ...     10440
Shell pairs after pre-screening             ...      9056
Total number of primitive shell pairs       ...     37972
Primitive shell pairs kept                  ...     22471
          la=0 lb=0:   3564 shell pairs
          la=1 lb=0:   3033 shell pairs
          la=1 lb=1:    642 shell pairs
          la=2 lb=0:   1195 shell pairs
          la=2 lb=1:    511 shell pairs
          la=2 lb=2:    111 shell pairs

Calculating one electron integrals          ... done (  0.0 sec)
Calculating RI/J V-Matrix + Cholesky decomp.... done (  0.0 sec)
Calculating Nuclear repulsion               ... done (  0.0 sec) ENN=    726.059339284298 Eh

Diagonalization of the overlap matrix:
Smallest eigenvalue                        ... 2.796e-05
Time for diagonalization                   ...    0.005 sec
Threshold for overlap eigenvalues          ... 1.000e-07
Number of eigenvalues below threshold      ... 0
Time for construction of square roots      ...    0.003 sec
Total time needed                          ...    0.009 sec

-------------------
DFT GRID GENERATION
-------------------

General Integration Accuracy     IntAcc      ... 4.959
Radial Grid Type                 RadialGrid  ... OptM3 with GC (2021)
Angular Grid (max. ang.)         AngularGrid ... 6 (Lebedev-590)
Angular grid pruning method      GridPruning ... 4 (adaptive)
Weight generation scheme         WeightScheme... mBecke (2022)
Basis function cutoff            BFCut       ... 1.0000e-11
Integration weight cutoff        WCut        ... 1.0000e-14
Partially contracted basis set               ... off
Rotationally invariant grid construction     ... off
Angular grids for H and He will be reduced by one unit
Diffuse basis detected: some atoms will have their outermost
                        angular grid increased by 1.

Total number of grid points                  ...   267988
Total number of batches                      ...     4199
Average number of points per batch           ...       63
Average number of grid points per atom       ...    11652
Initializing property integral containers    ... done (  0.0 sec)

SHARK setup successfully completed in   2.1 seconds

Maximum memory used throughout the entire STARTUP-calculation: 57.8 MB


           ************************************************************
           *        Program running with 16 parallel MPI-processes    *
           *              working on a common directory               *
           ************************************************************
-------------------------------------------------------------------------------
                                 ORCA GUESS
                   Start orbitals & Density for SCF / CASSCF
-------------------------------------------------------------------------------

------------
SCF SETTINGS
------------
Hamiltonian:
 Density Functional     Method          .... DFT(GTOs)
 Exchange Functional    Exchange        .... B973C
 Correlation Functional Correlation     .... B973C
 Gradients option       PostSCFGGA      .... off
 RI-approximation to the Coulomb term is turned on
   Number of AuxJ basis functions       .... 426


General Settings:
 Integral files         IntName         .... m1_00_Vitamin_B6-GFN2_001-B97-3C-TZ
 Hartree-Fock type      HFTyp           .... RHF
 Total Charge           Charge          ....    0
 Multiplicity           Mult            ....    1
 Number of Electrons    NEL             ....   90
 Basis Dimension        Dim             ....  276
 Nuclear Repulsion      ENuc            ....    726.0593392843 Eh

Convergence Acceleration:
 AO-DIIS                CNVDIIS         .... on
   Start iteration      DIISMaxIt       ....    12
   Startup error        DIISStart       ....  0.200000
   # of expansion vecs  DIISMaxEq       ....     5
   Bias factor          DIISBfac        ....   1.050
   Max. coefficient     DIISMaxC        ....  10.000
 MO-DIIS                CNVKDIIS        .... off
 Trust-Rad. Augm. Hess. CNVTRAH         .... off
 SOSCF                  CNVSOSCF        .... on
   Start iteration      SOSCFMaxIt      ....   150
   Startup grad/error   SOSCFStart      ....  0.003300
   Hessian update       SOSCFHessUp     .... L-BFGS
 Level Shifting         CNVShift        .... on
   Level shift para.    LevelShift      ....    0.2500
   Turn off err/grad.   ShiftErr        ....    0.0010
 Zerner damping         CNVZerner       .... off
 Static damping         CNVDamp         .... on
   Fraction old density DampFac         ....    0.7000
   Max. Damping (<1)    DampMax         ....    0.9800
   Min. Damping (>=0)   DampMin         ....    0.0000
   Turn off err/grad.   DampErr         ....    0.1000

SCF Procedure:
 Maximum # iterations   MaxIter         ....   800
 SCF integral mode      SCFMode         .... Direct
   Integral package                     .... SHARK and LIBINT hybrid scheme
 Reset frequency        DirectResetFreq ....    20
 Integral Threshold     Thresh          ....  2.500e-11 Eh
 Primitive CutOff       TCut            ....  2.500e-12 Eh

Convergence Tolerance:
 Convergence Check Mode ConvCheckMode   .... Total+1el-Energy
 Convergence forced     ConvForced      .... 0
 Energy Change          TolE            ....  1.000e-08 Eh
 1-El. energy change                    ....  1.000e-05 Eh
 Orbital Gradient       TolG            ....  1.000e-05
 Orbital Rotation angle TolX            ....  1.000e-05
 DIIS Error             TolErr          ....  5.000e-07

--------------------------------
INITIAL GUESS: MINIMAL BASIS EHT
--------------------------------
The minimal basis has 71 functions
EHT matrix was diagonalized
Basis set overlap was calculated now projecting the orbitals
Using GuessMode=FMatrix for the initial guess
C*T matrix was formed
Effective Fockian was calculated
Effective Fockian was diagonalized
Initial density was built
                      ------------------
                      INITIAL GUESS DONE
                      ------------------
             **** ENERGY FILE WAS UPDATED (m1_00_Vitamin_B6-GFN2_001-B97-3C-TZ.en.tmp) ****
Finished Guess after   0.1 sec
Maximum memory used throughout the entire GUESS-calculation: 16.1 MB


           ************************************************************
           *        Program running with 16 parallel MPI-processes    *
           *              working on a common directory               *
           ************************************************************

-------------------------------------------------------------------------------------------
                                      ORCA LEAN-SCF
                              memory conserving SCF solver
-------------------------------------------------------------------------------------------

----------------------------------------D-I-I-S--------------------------------------------
Iteration    Energy (Eh)           Delta-E    RMSDP     MaxDP     DIISErr   Damp  Time(sec)
-------------------------------------------------------------------------------------------
               ***  Starting incremental Fock matrix formation  ***
    1    -589.6288023737162121     0.00e+00  7.95e-03  2.27e-01  4.58e-01  0.700   0.3
Warning: op=0 Small HOMO/LUMO gap (   0.085) - skipping pre-diagonalization
         Will do a full diagonalization
    2    -590.2983699875645698    -6.70e-01  7.47e-03  3.20e-01  3.24e-01  0.700   0.3
    3    -590.6604798339468516    -3.62e-01  3.71e-03  1.11e-01  2.30e-01  0.700   0.3
                               ***Turning on AO-DIIS***
    4    -590.9097070655722064    -2.49e-01  2.71e-03  1.17e-01  1.62e-01  0.700   0.3
    5    -591.0850302699751637    -1.75e-01  1.93e-03  8.77e-02  1.11e-01  0.700   0.3
    6    -591.2089709299526703    -1.24e-01  1.26e-03  4.90e-02  7.73e-02  0.700   0.3
    7    -591.2971767195193706    -8.82e-02  2.88e-03  7.16e-02  5.41e-02  0.000   0.3
    8    -591.5007823846793826    -2.04e-01  5.41e-04  2.44e-02  1.85e-02  0.000   0.3
                              *** Initializing SOSCF ***
---------------------------------------S-O-S-C-F--------------------------------------
Iteration    Energy (Eh)           Delta-E    RMSDP     MaxDP     MaxGrad    Time(sec)
--------------------------------------------------------------------------------------
    9    -591.5026486158611760    -1.87e-03  7.84e-05  3.07e-03  2.88e-03     0.3
               *** Restarting incremental Fock matrix formation ***
   10    -591.5026793314301585    -3.07e-05  8.77e-05  3.09e-03  2.86e-04     0.3
   11    -591.5026574928841683     2.18e-05  6.51e-05  2.60e-03  7.60e-04     0.3
   12    -591.5026867213329069    -2.92e-05  3.61e-05  1.76e-03  1.72e-04     0.3
   13    -591.5026839210528351     2.80e-06  2.76e-05  1.67e-03  4.49e-04     0.3
   14    -591.5026874286332941    -3.51e-06  1.02e-05  6.69e-04  3.08e-05     0.3
   15    -591.5026873398034013     8.88e-08  6.17e-06  3.31e-04  3.80e-05     0.3
   16    -591.5026874832134354    -1.43e-07  6.99e-06  3.92e-04  5.84e-06     0.3
   17    -591.5026874628402993     2.04e-08  3.09e-06  1.68e-04  1.55e-05     0.3
   18    -591.5026874685064513    -5.67e-09  3.67e-06  1.94e-04  2.77e-06     0.3
                 **** Energy Check signals convergence ****

               *****************************************************
               *                     SUCCESS                       *
               *           SCF CONVERGED AFTER  18 CYCLES          *
               *****************************************************

             **** ENERGY FILE WAS UPDATED (m1_00_Vitamin_B6-GFN2_001-B97-3C-TZ.en.tmp) ****

----------------
TOTAL SCF ENERGY
----------------

Total Energy       :       -591.50268746850645 Eh          -16095.60641 eV

Components:
Nuclear Repulsion  :        726.05933928429829 Eh           19757.07905 eV
Electronic Energy  :      -1317.56202675280474 Eh          -35852.68546 eV
One Electron Energy:      -2246.88868401000263 Eh          -61140.94944 eV
Two Electron Energy:        929.32665725719789 Eh           25288.26397 eV

Virial components:
Potential Energy   :      -1180.93677040900093 Eh          -32134.92323 eV
Kinetic Energy     :        589.43408294049448 Eh           16039.31682 eV
Virial Ratio       :          2.00350947559342

DFT components:
N(Alpha)           :       45.000003563908 electrons
N(Beta)            :       45.000003563908 electrons
N(Total)           :       90.000007127815 electrons
E(XC)              :      -79.829141340484 Eh       

---------------
SCF CONVERGENCE
---------------

  Last Energy change         ...    5.6662e-09  Tolerance :   1.0000e-08
  Last MAX-Density change    ...    1.9412e-04  Tolerance :   1.0000e-07
  Last RMS-Density change    ...    3.6658e-06  Tolerance :   5.0000e-09
  Last DIIS Error            ...    2.8758e-03  Tolerance :   5.0000e-07
  Last Orbital Gradient      ...    2.7736e-06  Tolerance :   1.0000e-05
  Last Orbital Rotation      ...    1.3092e-05  Tolerance :   1.0000e-05


----------------
ORBITAL ENERGIES
----------------

  NO   OCC          E(Eh)            E(eV) 
   0   2.0000     -18.779447      -511.0147 
   1   2.0000     -18.772481      -510.8252 
   2   2.0000     -18.758728      -510.4509 
   3   2.0000     -13.974562      -380.2672 
   4   2.0000      -9.959253      -271.0051 
   5   2.0000      -9.956478      -270.9295 
   6   2.0000      -9.952374      -270.8179 
   7   2.0000      -9.924119      -270.0490 
   8   2.0000      -9.913599      -269.7627 
   9   2.0000      -9.913488      -269.7597 
  10   2.0000      -9.905876      -269.5526 
  11   2.0000      -9.876092      -268.7421 
  12   2.0000      -0.990610       -26.9559 
  13   2.0000      -0.969714       -26.3873 
  14   2.0000      -0.958467       -26.0812 
  15   2.0000      -0.870461       -23.6864 
  16   2.0000      -0.755136       -20.5483 
  17   2.0000      -0.713538       -19.4164 
  18   2.0000      -0.669257       -18.2114 
  19   2.0000      -0.644590       -17.5402 
  20   2.0000      -0.608170       -16.5492 
  21   2.0000      -0.577033       -15.7019 
  22   2.0000      -0.539616       -14.6837 
  23   2.0000      -0.517366       -14.0782 
  24   2.0000      -0.485581       -13.2133 
  25   2.0000      -0.464577       -12.6418 
  26   2.0000      -0.445526       -12.1234 
  27   2.0000      -0.430943       -11.7266 
  28   2.0000      -0.424175       -11.5424 
  29   2.0000      -0.405102       -11.0234 
  30   2.0000      -0.398505       -10.8439 
  31   2.0000      -0.390706       -10.6316 
  32   2.0000      -0.381386       -10.3780 
  33   2.0000      -0.353766        -9.6265 
  34   2.0000      -0.344253        -9.3676 
  35   2.0000      -0.336833        -9.1657 
  36   2.0000      -0.329865        -8.9761 
  37   2.0000      -0.320791        -8.7292 
  38   2.0000      -0.309572        -8.4239 
  39   2.0000      -0.307110        -8.3569 
  40   2.0000      -0.266310        -7.2467 
  41   2.0000      -0.249553        -6.7907 
  42   2.0000      -0.237397        -6.4599 
  43   2.0000      -0.207594        -5.6489 
  44   2.0000      -0.201003        -5.4696 
  45   0.0000      -0.057184        -1.5561 
  46   0.0000      -0.031843        -0.8665 
  47   0.0000      -0.003716        -0.1011 
  48   0.0000       0.019914         0.5419 
  49   0.0000       0.040161         1.0928 
  50   0.0000       0.054797         1.4911 
  51   0.0000       0.061627         1.6770 
  52   0.0000       0.070334         1.9139 
  53   0.0000       0.079961         2.1758 
  54   0.0000       0.093842         2.5536 
  55   0.0000       0.101724         2.7681 
*Only the first 10 virtual orbitals were printed.

                    ********************************
                    * MULLIKEN POPULATION ANALYSIS *
                    ********************************

-----------------------
MULLIKEN ATOMIC CHARGES
-----------------------
   0 O :   -0.541330
   1 O :   -0.623725
   2 O :   -0.559381
   3 N :   -0.038713
   4 C :   -0.030758
   5 C :    0.106468
   6 C :    0.469915
   7 C :   -0.062381
   8 C :   -0.319023
   9 C :   -0.393788
  10 C :   -0.214070
  11 C :   -0.550147
  12 H :    0.233844
  13 H :    0.181646
  14 H :    0.174678
  15 H :    0.190864
  16 H :    0.146142
  17 H :    0.171117
  18 H :    0.193243
  19 H :    0.169648
  20 H :    0.428012
  21 H :    0.439079
  22 H :    0.428661
Sum of atomic charges:   -0.0000000

--------------------------------
MULLIKEN REDUCED ORBITAL CHARGES
--------------------------------
  0 O s       :     3.786323  s :     3.786323
      pz      :     1.617179  p :     4.716194
      px      :     1.550228
      py      :     1.548787
      dz2     :     0.009112  d :     0.038813
      dxz     :     0.012366
      dyz     :     0.005389
      dx2y2   :     0.007098
      dxy     :     0.004847

  1 O s       :     3.822942  s :     3.822942
      pz      :     1.457624  p :     4.754729
      px      :     1.589884
      py      :     1.707221
      dz2     :     0.004072  d :     0.046053
      dxz     :     0.012792
      dyz     :     0.003508
      dx2y2   :     0.012216
      dxy     :     0.013466

  2 O s       :     3.812413  s :     3.812413
      pz      :     1.789236  p :     4.710246
      px      :     1.472703
      py      :     1.448307
      dz2     :     0.004832  d :     0.036722
      dxz     :     0.016570
      dyz     :     0.001298
      dx2y2   :     0.016399
      dxy     :    -0.002376

  3 N s       :     3.438838  s :     3.438838
      pz      :     1.013723  p :     3.552275
      px      :     1.193570
      py      :     1.344982
      dz2     :     0.009103  d :     0.047600
      dxz     :     0.009421
      dyz     :     0.013448
      dx2y2   :     0.008594
      dxy     :     0.007034

  4 C s       :     3.277103  s :     3.277103
      pz      :     0.848602  p :     2.708172
      px      :     1.025669
      py      :     0.833901
      dz2     :     0.010580  d :     0.045484
      dxz     :     0.008118
      dyz     :     0.010376
      dx2y2   :     0.007948
      dxy     :     0.008462

  5 C s       :     3.084542  s :     3.084542
      pz      :     0.844656  p :     2.761905
      px      :     0.972889
      py      :     0.944360
      dz2     :     0.009293  d :     0.047084
      dxz     :     0.009696
      dyz     :     0.010998
      dx2y2   :     0.008825
      dxy     :     0.008273

  6 C s       :     3.007129  s :     3.007129
      pz      :     0.775667  p :     2.450457
      px      :     0.798574
      py      :     0.876217
      dz2     :     0.018530  d :     0.072499
      dxz     :     0.014232
      dyz     :     0.015184
      dx2y2   :     0.012731
      dxy     :     0.011821

  7 C s       :     3.184667  s :     3.184667
      pz      :     0.904394  p :     2.813255
      px      :     0.930767
      py      :     0.978094
      dz2     :     0.016282  d :     0.064459
      dxz     :     0.012056
      dyz     :     0.013178
      dx2y2   :     0.009899
      dxy     :     0.013044

  8 C s       :     3.325573  s :     3.325573
      pz      :     0.849678  p :     2.929123
      px      :     1.089964
      py      :     0.989481
      dz2     :     0.013349  d :     0.064327
      dxz     :     0.012414
      dyz     :     0.016087
      dx2y2   :     0.009471
      dxy     :     0.013006

  9 C s       :     3.345441  s :     3.345441
      pz      :     1.029406  p :     2.981978
      px      :     1.124494
      py      :     0.828078
      dz2     :     0.007999  d :     0.066369
      dxz     :     0.012828
      dyz     :     0.018690
      dx2y2   :     0.013601
      dxy     :     0.013251

 10 C s       :     3.196908  s :     3.196908
      pz      :     0.991125  p :     2.958298
      px      :     0.983700
      py      :     0.983473
      dz2     :     0.011955  d :     0.058864
      dxz     :     0.014348
      dyz     :     0.014077
      dx2y2   :     0.009517
      dxy     :     0.008967

 11 C s       :     3.265658  s :     3.265658
      pz      :     1.018848  p :     3.247457
      px      :     1.141378
      py      :     1.087231
      dz2     :     0.009867  d :     0.037032
      dxz     :     0.002137
      dyz     :     0.010641
      dx2y2   :     0.005242
      dxy     :     0.009145

 12 H s       :     0.766156  s :     0.766156

 13 H s       :     0.818354  s :     0.818354

 14 H s       :     0.825322  s :     0.825322

 15 H s       :     0.809136  s :     0.809136

 16 H s       :     0.853858  s :     0.853858

 17 H s       :     0.828883  s :     0.828883

 18 H s       :     0.806757  s :     0.806757

 19 H s       :     0.830352  s :     0.830352

 20 H s       :     0.571988  s :     0.571988

 21 H s       :     0.560921  s :     0.560921

 22 H s       :     0.571339  s :     0.571339



                     *******************************
                     * LOEWDIN POPULATION ANALYSIS *
                     *******************************

----------------------
LOEWDIN ATOMIC CHARGES
----------------------
   0 O :   -0.628536
   1 O :   -0.725419
   2 O :   -0.751586
   3 N :   -0.164321
   4 C :   -0.013525
   5 C :   -0.066036
   6 C :    0.199990
   7 C :    0.029087
   8 C :    0.037815
   9 C :    0.023393
  10 C :   -0.095974
  11 C :   -0.395484
  12 H :    0.209823
  13 H :    0.193812
  14 H :    0.173765
  15 H :    0.186172
  16 H :    0.156238
  17 H :    0.173737
  18 H :    0.167875
  19 H :    0.173159
  20 H :    0.387311
  21 H :    0.368413
  22 H :    0.360290

-------------------------------
LOEWDIN REDUCED ORBITAL CHARGES
-------------------------------
  0 O s       :     3.511025  s :     3.511025
      pz      :     1.648875  p :     4.777505
      px      :     1.584692
      py      :     1.543938
      dz2     :     0.078859  d :     0.340006
      dxz     :     0.069000
      dyz     :     0.060786
      dx2y2   :     0.069466
      dxy     :     0.061894

  1 O s       :     3.549721  s :     3.549721
      pz      :     1.542115  p :     4.828335
      px      :     1.607474
      py      :     1.678747
      dz2     :     0.083373  d :     0.347363
      dxz     :     0.081889
      dyz     :     0.090806
      dx2y2   :     0.039826
      dxy     :     0.051469

  2 O s       :     3.561777  s :     3.561777
      pz      :     1.793336  p :     4.857087
      px      :     1.513999
      py      :     1.549752
      dz2     :     0.028786  d :     0.332723
      dxz     :     0.052205
      dyz     :     0.076644
      dx2y2   :     0.102982
      dxy     :     0.072106

  3 N s       :     3.207046  s :     3.207046
      pz      :     1.178369  p :     3.867741
      px      :     1.269694
      py      :     1.419678
      dz2     :     0.019848  d :     0.089534
      dxz     :     0.020297
      dyz     :     0.025361
      dx2y2   :     0.012682
      dxy     :     0.011346

  4 C s       :     2.840452  s :     2.840452
      pz      :     1.039489  p :     3.080211
      px      :     1.023079
      py      :     1.017643
      dz2     :     0.021785  d :     0.092862
      dxz     :     0.017181
      dyz     :     0.021437
      dx2y2   :     0.015185
      dxy     :     0.017274

  5 C s       :     2.855107  s :     2.855107
      pz      :     1.037418  p :     3.113271
      px      :     1.031620
      py      :     1.044233
      dz2     :     0.019655  d :     0.097657
      dxz     :     0.019884
      dyz     :     0.023128
      dx2y2   :     0.017465
      dxy     :     0.017525

  6 C s       :     2.776710  s :     2.776710
      pz      :     0.952070  p :     2.863311
      px      :     0.910662
      py      :     1.000579
      dz2     :     0.039903  d :     0.159989
      dxz     :     0.035491
      dyz     :     0.032363
      dx2y2   :     0.025974
      dxy     :     0.026259

  7 C s       :     2.828045  s :     2.828045
      pz      :     1.014206  p :     3.007074
      px      :     0.977354
      py      :     1.015515
      dz2     :     0.032592  d :     0.135794
      dxz     :     0.025938
      dyz     :     0.028672
      dx2y2   :     0.019329
      dxy     :     0.029261

  8 C s       :     2.857333  s :     2.857333
      pz      :     0.911971  p :     2.978560
      px      :     1.067586
      py      :     0.999003
      dz2     :     0.028587  d :     0.126293
      dxz     :     0.024286
      dyz     :     0.032460
      dx2y2   :     0.015878
      dxy     :     0.025082

  9 C s       :     2.858598  s :     2.858598
      pz      :     1.035548  p :     2.987441
      px      :     1.051516
      py      :     0.900377
      dz2     :     0.015702  d :     0.130569
      dxz     :     0.021311
      dyz     :     0.037722
      dx2y2   :     0.029418
      dxy     :     0.026417

 10 C s       :     2.877682  s :     2.877682
      pz      :     1.027776  p :     3.097648
      px      :     1.035394
      py      :     1.034477
      dz2     :     0.023985  d :     0.120644
      dxz     :     0.026075
      dyz     :     0.032831
      dx2y2   :     0.019942
      dxy     :     0.017812

 11 C s       :     2.974182  s :     2.974182
      pz      :     1.095070  p :     3.360785
      px      :     1.148352
      py      :     1.117363
      dz2     :     0.016686  d :     0.060517
      dxz     :     0.003495
      dyz     :     0.018067
      dx2y2   :     0.007783
      dxy     :     0.014486

 12 H s       :     0.790177  s :     0.790177

 13 H s       :     0.806188  s :     0.806188

 14 H s       :     0.826235  s :     0.826235

 15 H s       :     0.813828  s :     0.813828

 16 H s       :     0.843762  s :     0.843762

 17 H s       :     0.826263  s :     0.826263

 18 H s       :     0.832125  s :     0.832125

 19 H s       :     0.826841  s :     0.826841

 20 H s       :     0.612689  s :     0.612689

 21 H s       :     0.631587  s :     0.631587

 22 H s       :     0.639710  s :     0.639710



                      *****************************
                      * MAYER POPULATION ANALYSIS *
                      *****************************

  NA   - Mulliken gross atomic population
  ZA   - Total nuclear charge
  QA   - Mulliken gross atomic charge
  VA   - Mayer's total valence
  BVA  - Mayer's bonded valence
  FA   - Mayer's free valence

  ATOM       NA         ZA         QA         VA         BVA        FA
  0 O      8.5413     8.0000    -0.5413     1.9272     1.9272    -0.0000
  1 O      8.6237     8.0000    -0.6237     1.8114     1.8114     0.0000
  2 O      8.5594     8.0000    -0.5594     1.7434     1.7434    -0.0000
  3 N      7.0387     7.0000    -0.0387     3.2268     3.2268     0.0000
  4 C      6.0308     6.0000    -0.0308     3.3963     3.3963     0.0000
  5 C      5.8935     6.0000     0.1065     3.3310     3.3310    -0.0000
  6 C      5.5301     6.0000     0.4699     3.5354     3.5354    -0.0000
  7 C      6.0624     6.0000    -0.0624     3.8480     3.8480     0.0000
  8 C      6.3190     6.0000    -0.3190     3.6376     3.6376     0.0000
  9 C      6.3938     6.0000    -0.3938     3.8618     3.8618    -0.0000
 10 C      6.2141     6.0000    -0.2141     4.0116     4.0116     0.0000
 11 C      6.5501     6.0000    -0.5501     3.7162     3.7162    -0.0000
 12 H      0.7662     1.0000     0.2338     0.9497     0.9497     0.0000
 13 H      0.8184     1.0000     0.1816     0.9362     0.9362     0.0000
 14 H      0.8253     1.0000     0.1747     0.9335     0.9335    -0.0000
 15 H      0.8091     1.0000     0.1909     0.9236     0.9236    -0.0000
 16 H      0.8539     1.0000     0.1461     0.9503     0.9503     0.0000
 17 H      0.8289     1.0000     0.1711     0.9519     0.9519    -0.0000
 18 H      0.8068     1.0000     0.1932     0.9606     0.9606    -0.0000
 19 H      0.8304     1.0000     0.1696     0.9519     0.9519    -0.0000
 20 H      0.5720     1.0000     0.4280     0.8324     0.8324     0.0000
 21 H      0.5609     1.0000     0.4391     0.7821     0.7821     0.0000
 22 H      0.5713     1.0000     0.4287     0.7926     0.7926    -0.0000

  Mayer bond orders larger than 0.100000
B(  0-O ,  6-C ) :   1.1304 B(  0-O , 20-H ) :   0.6712 B(  1-O ,  8-C ) :   0.9987 
B(  1-O , 20-H ) :   0.1533 B(  1-O , 21-H ) :   0.7654 B(  2-O ,  9-C ) :   1.0101 
B(  2-O , 22-H ) :   0.7688 B(  3-N ,  7-C ) :   1.6742 B(  3-N , 10-C ) :   1.5263 
B(  4-C ,  5-C ) :   1.2535 B(  4-C ,  6-C ) :   1.3087 B(  4-C ,  8-C ) :   0.8713 
B(  5-C ,  9-C ) :   0.8561 B(  5-C , 10-C ) :   1.3668 B(  6-C ,  7-C ) :   1.3041 
B(  6-C ,  8-C ) :  -0.1112 B(  7-C , 11-C ) :   0.8793 B(  8-C , 12-H ) :   0.9386 
B(  8-C , 13-H ) :   0.9451 B(  9-C , 14-H ) :   0.9650 B(  9-C , 15-H ) :   0.9546 
B( 10-C , 16-H ) :   0.9563 B( 11-C , 17-H ) :   0.9495 B( 11-C , 18-H ) :   0.9721 
B( 11-C , 19-H ) :   0.9521 


------------------
HIRSHFELD ANALYSIS
------------------

Total integrated alpha density =     45.000003564
Total integrated beta density  =     45.000003564

  ATOM     CHARGE      SPIN    
   0 O   -0.194713    0.000000
   1 O   -0.197738    0.000000
   2 O   -0.231486    0.000000
   3 N   -0.191294    0.000000
   4 C   -0.027751    0.000000
   5 C   -0.025970    0.000000
   6 C    0.067750    0.000000
   7 C    0.057174    0.000000
   8 C    0.036153    0.000000
   9 C    0.035679    0.000000
  10 C   -0.000089    0.000000
  11 C   -0.079623    0.000000
  12 H    0.033429    0.000000
  13 H    0.042188    0.000000
  14 H    0.029414    0.000000
  15 H    0.039707    0.000000
  16 H    0.032500    0.000000
  17 H    0.036562    0.000000
  18 H    0.036170    0.000000
  19 H    0.035210    0.000000
  20 H    0.135825    0.000000
  21 H    0.173016    0.000000
  22 H    0.157880    0.000000

  TOTAL  -0.000007    0.000000

-------
TIMINGS
-------

Total SCF time: 0 days 0 hours 0 min 5 sec 

Total time                  ....       5.985 sec
Sum of individual times     ....       5.903 sec  ( 98.6%)

SCF preparation             ....       0.152 sec  (  2.5%)
Fock matrix formation       ....       4.911 sec  ( 82.1%)
  Startup                   ....       0.014 sec  (  0.3% of F)
  Split-RI-J                ....       0.751 sec  ( 15.3% of F)
  XC integration            ....       3.917 sec  ( 79.8% of F)
    XC Preparation          ....       0.000 sec  (  0.0% of XC)
    Basis function eval.    ....       0.931 sec  ( 23.8% of XC)
    Density eval.           ....       0.711 sec  ( 18.2% of XC)
    XC-Functional eval.     ....       0.116 sec  (  3.0% of XC)
    XC-Potential eval.      ....       0.659 sec  ( 16.8% of XC)
Diagonalization             ....       0.000 sec  (  0.0%)
Density matrix formation    ....       0.045 sec  (  0.8%)
Total Energy calculation    ....       0.025 sec  (  0.4%)
Population analysis         ....       0.402 sec  (  6.7%)
Orbital Transformation      ....       0.037 sec  (  0.6%)
Orbital Orthonormalization  ....       0.000 sec  (  0.0%)
DIIS solution               ....       0.215 sec  (  3.6%)
SOSCF solution              ....       0.118 sec  (  2.0%)
Finished LeanSCF after   6.0 sec

Maximum memory used throughout the entire LEANSCF-calculation: 43.3 MB


           ************************************************************
           *        Program running with 16 parallel MPI-processes    *
           *              working on a common directory               *
           ************************************************************

------------------------------------------------------------------------------
                         ORCA PROPERTY INTEGRAL CALCULATIONS
------------------------------------------------------------------------------

GBWName                                   ... m1_00_Vitamin_B6-GFN2_001-B97-3C-TZ.gbw
Number of atoms                           ...     23
Number of basis functions                 ...    276
Max core memory                           ...   6000 MB

Dipole integrals                          ... YES
Quadrupole integrals                      ...  NO
Linear momentum integrals                 ...  NO
Angular momentum integrals                ...  NO
Higher moments length integrals           ...  NO
Higher moments velocity integrals         ...  NO
Kinetic energy integrals                  ...  NO
GIAO right hand sides                     ...  NO
GIAO dipole derivative integrals          ...  NO
SOC integrals                             ...  NO
EPR diamagnetic integrals (GIAO)          ...  NO
EPR gauge integrals                       ...  NO
Field gradient integrals                  ...  NO (   0 nuclei)
Spin-dipole/Fermi contact integrals       ...  NO (   0 nuclei)
Contact density integrals                 ...  NO (   0 nuclei)
Nucleus-orbit integrals                   ...  NO (   0 nuclei)
Geometric perturbations                   ...  NO (  23 nuclei)

Choice of electric origin   ... Center of mass
Position of electric origin ... (  0.1599,  0.3513,  0.1843) 
Choice of magnetic origin   ... GIAO
Position of magnetic origin ... (  0.0000,  0.0000,  0.0000) 

Calculating integrals                     ... Electric Dipole (Length)     done (  0.0 sec)

Property integrals calculated in   0.0 sec

Maximum memory used throughout the entire PROPINT-calculation: 16.6 MB


-------------------------------------------------------------------------------
                          DFT DISPERSION CORRECTION                            
                                                                               
                              DFTD3 V3.1  Rev 1                                
                          USING Becke-Johnson damping                          
-------------------------------------------------------------------------------
The B97-3c composite method is recognized
Using three-body term ABC
Active option DFTDOPT                   ...         4   

molecular C6(AA) [au] = 5022.259181 


            DFT-D V3
 parameters
 s6 scaling factor         :     1.0000 
 a1 scaling factor         :     0.3700 
 s8 scaling factor         :     1.5000 
 a2 scaling factor         :     4.1000 
 Damping factor alpha9(ATM):    16.0000 
 ad hoc parameters k1-k3   :    16.0000     1.3333    -4.0000 

 Edisp/kcal,au: -34.449263425918  -0.054898389865 
 E6   /kcal   : -17.565201320 
 E8   /kcal   : -16.942653301 
 E6(ABC)      :   0.058591195 
 % E8         :  49.181467515 
 % E6(ABC)    :  -0.170079674 

-------------------------   ----------------
Dispersion correction           -0.054898390
-------------------------   ----------------

------------------   -----------------
SRB correction            -0.067763656
------------------   -----------------

-------------------------   --------------------
FINAL SINGLE POINT ENERGY      -591.625349514772
-------------------------   --------------------



           ************************************************************
           *        Program running with 16 parallel MPI-processes    *
           *              working on a common directory               *
           ************************************************************
------------------------------------------------------------------------------
                         ORCA SCF GRADIENT CALCULATION
------------------------------------------------------------------------------

Nuc. rep. gradient        (SHARK) ... done (  0.0 sec)
HCore & Overlap gradient  (SHARK) ... done (  0.1 sec)
Split-RIJ-J gradient      (SHARK) ... done (  0.1 sec)
XC gradient                       ... done (  1.8 sec)
Dispersion correction             ... done (  0.1 sec)

-------------------
DISPERSION GRADIENT
-------------------

   1   O   :   -0.000619642    0.000074962    0.000672762
   2   O   :   -0.000361748    0.000716823    0.000202671
   3   O   :    0.000524519    0.000595965   -0.000507154
   4   N   :    0.000683621   -0.000728733   -0.000175712
   5   C   :   -0.000495127    0.000183529    0.000071698
   6   C   :    0.000444447   -0.000266523   -0.000678029
   7   C   :   -0.000385747   -0.000172829    0.000557917
   8   C   :    0.000159379   -0.000706280    0.000526472
   9   C   :   -0.000819388    0.000798071    0.000027576
  10   C   :    0.000390915    0.000271986   -0.000957308
  11   C   :    0.000732485   -0.000810436   -0.000315470
  12   C   :    0.000036944   -0.000653587    0.000667861
  13   H   :   -0.000282034    0.000490538   -0.000107689
  14   H   :   -0.000566310    0.000231364   -0.000233045
  15   H   :    0.000163354    0.000026031   -0.000444224
  16   H   :   -0.000057602    0.000069628   -0.000621676
  17   H   :    0.000386523   -0.000359842   -0.000192993
  18   H   :   -0.000177261   -0.000385160    0.000275150
  19   H   :    0.000077370   -0.000316734    0.000250886
  20   H   :    0.000084832   -0.000178558    0.000464939
  21   H   :   -0.000368705    0.000141773    0.000374178
  22   H   :   -0.000008795    0.000568668    0.000253700
  23   H   :    0.000457970    0.000409344   -0.000112511

Difference to translation invariance:
           :    0.0000000000   -0.0000000000    0.0000000000

Difference to rotation invariance:
           :   -0.0000000000   -0.0000000000    0.0000000000

Norm of the Dispersion gradient    ...    0.0037172139
RMS gradient                       ...    0.0004475000
MAX gradient                       ...    0.0009573078
SRB correction                   ... done

------------------
CARTESIAN GRADIENT
------------------

   1   O   :    0.004085698    0.003625748   -0.002540463
   2   O   :    0.005759335   -0.004638313   -0.006867638
   3   O   :   -0.002966418   -0.011011428    0.001067608
   4   N   :   -0.005223943    0.007773920   -0.001537431
   5   C   :    0.002141319   -0.003812459   -0.000516505
   6   C   :   -0.001083645   -0.000505505    0.002476854
   7   C   :   -0.004235497   -0.001757342    0.006568308
   8   C   :    0.006873973   -0.000929925   -0.009581913
   9   C   :   -0.003448929    0.006578756    0.009597135
  10   C   :    0.001186830    0.009585587   -0.002928598
  11   C   :    0.000229766   -0.005622556    0.007118022
  12   C   :    0.000055570   -0.003203980    0.003155012
  13   H   :    0.003049286    0.003058603   -0.001857545
  14   H   :   -0.002375404   -0.002045038   -0.000867195
  15   H   :    0.003906843   -0.000059669   -0.000214843
  16   H   :   -0.003524831    0.000678649    0.000329717
  17   H   :   -0.000925409   -0.001217396    0.002857701
  18   H   :    0.000520050    0.001230610   -0.002636250
  19   H   :    0.000498931   -0.000277405   -0.000283721
  20   H   :    0.000893576    0.001543926   -0.002166020
  21   H   :   -0.004124888   -0.001626186   -0.000554579
  22   H   :   -0.001511236    0.000961016    0.000073235
  23   H   :    0.000219022    0.001670388   -0.000690892

Difference to translation invariance:
           :   -0.0000000000    0.0000000000    0.0000000000

Difference to rotation invariance:
           :   -0.0000256871   -0.0000443977   -0.0000980349

Norm of the Cartesian gradient     ...    0.0325142469
RMS gradient                       ...    0.0039142554
MAX gradient                       ...    0.0110114282

-------
TIMINGS
-------

Total SCF gradient time     ....        2.044 sec

Densities                   ....       0.001 sec  (  0.1%)
One electron gradient       ....       0.050 sec  (  2.5%)
RI-J Coulomb gradient       ....       0.127 sec  (  6.2%)
XC gradient                 ....       1.796 sec  ( 87.9%)

Maximum memory used throughout the entire SCFGRAD-calculation: 51.5 MB
------------------------------------------------------------------------------
                         ORCA GEOMETRY RELAXATION STEP
------------------------------------------------------------------------------

Reading the OPT-File                    .... done
Getting information on internals        .... done
Copying old internal coords+grads       .... done
Making the new internal coordinates     .... (2022 redundants) done
Validating the new internal coordinates .... (2022 redundants) done
Calculating the B-matrix                .... done
Calculating the G,G- and P matrices     .... done
Transforming gradient to internals      .... done
Projecting the internal gradient        .... done
Number of atoms                         ....  23
Number of internal coordinates          .... 104
Current Energy                          ....  -591.625349515 Eh
Current gradient norm                   ....     0.032514247 Eh/bohr
Maximum allowed component of the step   ....  0.300
Current trust radius                    ....  0.300
Evaluating the initial hessian          ....  (Almloef) done
Projecting the Hessian                  .... done
Forming the augmented Hessian           .... done
Diagonalizing the augmented Hessian     .... done
Last element of RFO vector              ....  0.974544914
Lowest eigenvalues of augmented Hessian:
 -0.002767293  0.012197476  0.013519909  0.013764757  0.020487062
Length of the computed step             ....  0.230048251
The final length of the internal step   ....  0.230048251
Converting the step to Cartesian space:
 Initial RMS(Int)=    0.0225580870
Transforming coordinates:
 Iter   0:  RMS(Cart)=    0.0602937042 RMS(Int)=    1.2302873649
 Iter   5:  RMS(Cart)=    0.0000002890 RMS(Int)=    0.0000001803
done
Storing new coordinates                 .... done

                                .--------------------.
          ----------------------|Geometry convergence|-------------------------
          Item                value                   Tolerance       Converged
          ---------------------------------------------------------------------
          RMS gradient        0.0025906369            0.0000300000      NO
          MAX gradient        0.0108171359            0.0001000000      NO
          RMS step            0.0225580870            0.0020000000      NO
          MAX step            0.0981961010            0.0040000000      NO
          ........................................................
          Max(Bonds)      0.0241      Max(Angles)    0.80
          Max(Dihed)        5.63      Max(Improp)    0.00
          ---------------------------------------------------------------------

The optimization has not yet converged - more geometry cycles are needed


    ---------------------------------------------------------------------------
                         Redundant Internal Coordinates
                            (Angstroem and degrees)

        Definition                    Value    dE/dq     Step     New-Value
    ----------------------------------------------------------------------------
     1. B(C   5,C   4)                1.3997 -0.001843  0.0015    1.4012   
     2. B(C   6,O   0)                1.3514 -0.001883  0.0017    1.3530   
     3. B(C   6,C   4)                1.3967 -0.000961  0.0012    1.3978   
     4. B(C   7,C   6)                1.4082  0.000793 -0.0007    1.4076   
     5. B(C   7,N   3)                1.3177 -0.009822  0.0072    1.3249   
     6. B(C   8,C   4)                1.5143  0.002015 -0.0022    1.5121   
     7. B(C   8,O   1)                1.4218 -0.008467  0.0089    1.4307   
     8. B(C   9,C   5)                1.5089  0.002275 -0.0030    1.5060   
     9. B(C   9,O   2)                1.4159 -0.009476  0.0098    1.4257   
    10. B(C  10,C   5)                1.3863  0.001124 -0.0010    1.3853   
    11. B(C  10,N   3)                1.3223 -0.010817  0.0080    1.3303   
    12. B(C  11,C   7)                1.4931 -0.001407  0.0017    1.4948   
    13. B(H  12,C   8)                1.0924  0.004466 -0.0066    1.0858   
    14. B(H  13,C   8)                1.0966  0.002988 -0.0045    1.0922   
    15. B(H  14,C   9)                1.0978  0.002654 -0.0040    1.0938   
    16. B(H  15,C   9)                1.0936  0.002898 -0.0043    1.0893   
    17. B(H  16,C  10)                1.0824 -0.002060  0.0029    1.0853   
    18. B(H  17,C  11)                1.0885 -0.000991  0.0014    1.0899   
    19. B(H  18,C  11)                1.0851  0.000542 -0.0008    1.0843   
    20. B(H  19,C  11)                1.0885 -0.000828  0.0012    1.0897   
    21. B(H  20,O   1)                1.8456  0.000504 -0.0241    1.8214   
    22. B(H  20,O   0)                0.9759  0.000744 -0.0013    0.9747   
    23. B(H  21,O   1)                0.9634 -0.000780  0.0008    0.9642   
    24. B(H  22,O   2)                0.9635 -0.000276  0.0003    0.9638   
    25. A(C   6,O   0,H  20)          108.67  0.003172   -0.40    108.27   
    26. A(C   8,O   1,H  21)          108.66  0.002180   -0.35    108.31   
    27. A(C   9,O   2,H  22)          108.43  0.003020   -0.48    107.95   
[...]
     35       0.000117  -0.000005  -0.000015
     36       0.003050  -0.001635  -0.000166
     37      -0.001772  -0.004176  -0.000617
     38      -0.008631  -0.000186   0.000808
     39      -0.004321  -0.014369  -0.000443
     40      -0.003802  -0.004604  -0.000070
     41      -0.002905  -0.001746   0.000113
     42       0.000489   0.000327  -0.001671
     43      -0.000734   0.000103  -0.002388
     44      -0.000166  -0.000037  -0.000221
     45       0.001527   0.000601  -0.013362
     46      -0.000647  -0.000018   0.004843
     47       0.001596   0.000538  -0.007518
     48       0.000433   0.000287  -0.000207
     49      -0.000448  -0.000220  -0.000211
     50      -0.000050  -0.000154  -0.000392
     51       0.000841  -0.000007  -0.000026
     52      -0.000246   0.000008  -0.000036
     53      -0.000237   0.000017   0.000069
     54      -0.001598   0.000072   0.000046
     55       0.001531  -0.000114  -0.000061
     56       0.000576   0.000015   0.000003
     57       0.000377  -0.000020   0.000017
     58      -0.000754   0.000012   0.000059
     59      -0.000760   0.000074   0.000093
     60      -0.299827  -0.002673   0.000044
     61       0.947274   0.018856   0.000194
     62      -0.090949  -0.003414  -0.000158
     63       0.016897  -0.880097  -0.018743
     64       0.012252  -0.410164  -0.008848
     65      -0.002547  -0.228498  -0.005126
     66      -0.000076   0.017497  -0.810854
     67       0.000741  -0.003084   0.126322
     68      -0.000185   0.011889  -0.567387


-----------
IR SPECTRUM
-----------

 Mode   freq       eps      Int      T**2         TX        TY        TZ
       cm**-1   L/(mol*cm) km/mol    a.u.
----------------------------------------------------------------------------
  6:     75.40   0.000715    3.61  0.002960  (-0.034063  0.030568  0.029420)
  7:     81.86   0.000201    1.02  0.000767  (-0.017352 -0.019444 -0.009362)
  8:    101.38   0.000394    1.99  0.001212  (-0.003135  0.034672 -0.000546)
  9:    121.78   0.000310    1.57  0.000795  ( 0.024384  0.010352  0.009652)
 10:    130.16   0.001235    6.24  0.002961  ( 0.032758  0.043316  0.003417)
 11:    210.60   0.000545    2.76  0.000808  ( 0.025812 -0.007280  0.009411)
 12:    232.90   0.000393    1.99  0.000527  (-0.005860  0.022051 -0.002524)
 13:    279.14   0.000583    2.94  0.000651  (-0.000225 -0.005204  0.024986)
 14:    289.67   0.005308   26.82  0.005718  (-0.048219 -0.005445  0.057994)
 15:    319.18   0.002455   12.41  0.002400  ( 0.032996  0.000740 -0.036206)
 16:    347.65   0.016076   81.24  0.014430  ( 0.072792  0.014354 -0.094475)
 17:    356.71   0.005266   26.61  0.004607  (-0.023730 -0.056160  0.029826)
 18:    413.35   0.005215   26.35  0.003937  (-0.006097  0.061311 -0.011854)
 19:    440.20   0.013785   69.67  0.009773  (-0.004939 -0.090886  0.038576)
 20:    495.14   0.002273   11.48  0.001432  (-0.018373  0.030875  0.011895)
 21:    524.29   0.000907    4.58  0.000540  ( 0.014560 -0.017411  0.004982)
 22:    545.42   0.001210    6.11  0.000692  ( 0.014219  0.022132 -0.000040)
 23:    582.45   0.001600    8.09  0.000857  ( 0.028957 -0.004335  0.000042)
 24:    640.46   0.001311    6.63  0.000639  (-0.007391  0.016362  0.017792)
 25:    677.37   0.001729    8.74  0.000797  ( 0.001019  0.010420 -0.026210)
 26:    746.44   0.001083    5.47  0.000453  (-0.019669 -0.005319  0.006131)
 27:    763.95   0.007538   38.09  0.003079  ( 0.054200 -0.011517  0.002977)
 28:    778.43   0.008749   44.22  0.003508  ( 0.040841 -0.004980  0.042600)
 29:    883.53   0.003549   17.94  0.001254  ( 0.018316  0.028193  0.011107)
 30:    909.50   0.004375   22.11  0.001501  (-0.002235  0.027253  0.027451)
 31:    944.27   0.002414   12.20  0.000798  ( 0.018688  0.020526  0.005208)
 32:    970.59   0.003523   17.80  0.001133  ( 0.017288  0.020981 -0.019838)
 33:    989.22   0.010167   51.38  0.003207  ( 0.014619 -0.028022 -0.046993)
 34:   1002.10   0.021492  108.61  0.006693  (-0.023776 -0.078276  0.000645)
 35:   1028.10   0.002361   11.93  0.000717  ( 0.000802  0.012954 -0.023417)
 36:   1047.40   0.000421    2.13  0.000125  ( 0.006671  0.007896  0.004304)
 37:   1087.01   0.003171   16.02  0.000910  (-0.010434  0.022096  0.017694)
 38:   1188.97   0.002877   14.54  0.000755  (-0.018511 -0.020242  0.001611)
 39:   1206.12   0.002549   12.88  0.000660  ( 0.003628  0.001878  0.025356)
 40:   1250.48   0.019360   97.84  0.004831  (-0.044820  0.024233  0.047281)
 41:   1261.47   0.004695   23.72  0.001161  ( 0.012556  0.024891 -0.019600)
 42:   1300.28   0.000819    4.14  0.000196  (-0.009615  0.008207 -0.006053)
 43:   1317.97   0.003403   17.20  0.000806  ( 0.002934  0.016364 -0.023010)
 44:   1360.43   0.003888   19.65  0.000892  ( 0.014121  0.014407 -0.022018)
 45:   1373.66   0.030704  155.17  0.006975  (-0.045179 -0.007681  0.069822)
 46:   1387.65   0.002488   12.57  0.000559  (-0.012867 -0.001583  0.019783)
 47:   1395.22   0.006045   30.55  0.001352  ( 0.009729 -0.034217 -0.009301)
 48:   1407.55   0.004931   24.92  0.001093  (-0.008679 -0.020312  0.024606)
 49:   1409.97   0.010895   55.06  0.002411  (-0.023550 -0.037080  0.021949)
 50:   1440.53   0.011917   60.22  0.002582  (-0.026535  0.023554  0.036369)
 51:   1479.96   0.001987   10.04  0.000419  ( 0.020032  0.000904 -0.004113)
 52:   1483.21   0.002614   13.21  0.000550  ( 0.001674 -0.014203 -0.018585)
 53:   1492.90   0.000896    4.53  0.000187  (-0.008492  0.006053 -0.008864)
 54:   1514.71   0.000376    1.90  0.000077  ( 0.003329  0.006421  0.005012)
 55:   1520.44   0.001001    5.06  0.000205  ( 0.006119  0.000689 -0.012942)
 56:   1584.33   0.003760   19.00  0.000741  ( 0.015965 -0.020375 -0.008405)
 57:   1619.86   0.001150    5.81  0.000222  (-0.008244  0.012091 -0.002729)
 58:   2978.14   0.011188   56.54  0.001172  ( 0.007619 -0.015348 -0.029644)
 59:   3003.82   0.004386   22.16  0.000456  ( 0.004135  0.011296 -0.017634)
 60:   3015.19   0.004636   23.43  0.000480  ( 0.016709 -0.000679  0.014149)
 61:   3044.82   0.005023   25.39  0.000515  ( 0.018828 -0.006358  0.010951)
 62:   3053.39   0.003271   16.53  0.000334  (-0.012449 -0.009519 -0.009422)
 63:   3091.84   0.002079   10.51  0.000210  (-0.000024  0.008740 -0.011554)
 64:   3093.76   0.007351   37.15  0.000741  ( 0.016867 -0.003174 -0.021140)
 65:   3116.73   0.002524   12.76  0.000253  (-0.009031  0.013016 -0.001319)
 66:   3474.01   0.057047  288.29  0.005124  (-0.023347  0.067654 -0.001497)
 67:   3732.63   0.004228   21.37  0.000353  (-0.010721 -0.013162 -0.008082)
 68:   3734.58   0.003075   15.54  0.000257  (-0.013539 -0.006598 -0.005485)

* The epsilon (eps) is given for a Dirac delta lineshape.
** The dipole moment derivative (T) already includes vibrational overlap.

The first frequency considered to be a vibration is 6
The total number of vibrations considered is 63


--------------------------
THERMOCHEMISTRY AT 298.15K
--------------------------

Temperature         ...   298.15 K
Pressure            ...     1.00 atm
Total Mass          ...   169.18 AMU
Quasi RRHO          ...     True
Cut-Off Frequency   ...     1.00 cm^-1

Throughout the following assumptions are being made:
  (1) The electronic state is orbitally nondegenerate
  (2) There are no thermally accessible electronically excited states
  (3) Hindered rotations indicated by low frequency modes are not
      treated as such but are treated as vibrations and this may
      cause some error
  (4) All equations used are the standard statistical mechanics
      equations for an ideal gas
  (5) All vibrations are strictly harmonic

freq.      75.40  E(vib)   ...       0.49 
freq.      81.86  E(vib)   ...       0.48 
freq.     101.38  E(vib)   ...       0.46 
freq.     121.78  E(vib)   ...       0.44 
freq.     130.16  E(vib)   ...       0.43 
freq.     210.60  E(vib)   ...       0.34 
freq.     232.90  E(vib)   ...       0.32 
freq.     279.14  E(vib)   ...       0.28 
freq.     289.67  E(vib)   ...       0.27 
freq.     319.18  E(vib)   ...       0.25 
freq.     347.65  E(vib)   ...       0.23 
freq.     356.71  E(vib)   ...       0.22 
freq.     413.35  E(vib)   ...       0.19 
freq.     440.20  E(vib)   ...       0.17 
freq.     495.14  E(vib)   ...       0.14 
freq.     524.29  E(vib)   ...       0.13 
freq.     545.42  E(vib)   ...       0.12 
freq.     582.45  E(vib)   ...       0.11 
freq.     640.46  E(vib)   ...       0.09 
freq.     677.37  E(vib)   ...       0.08 
freq.     746.44  E(vib)   ...       0.06 
freq.     763.95  E(vib)   ...       0.06 
freq.     778.43  E(vib)   ...       0.05 
freq.     883.53  E(vib)   ...       0.04 
freq.     909.50  E(vib)   ...       0.03 
freq.     944.27  E(vib)   ...       0.03 
freq.     970.59  E(vib)   ...       0.03 
freq.     989.22  E(vib)   ...       0.02 
freq.    1002.10  E(vib)   ...       0.02 
freq.    1028.10  E(vib)   ...       0.02 
freq.    1047.40  E(vib)   ...       0.02 
freq.    1087.01  E(vib)   ...       0.02 
freq.    1188.97  E(vib)   ...       0.01 
freq.    1206.12  E(vib)   ...       0.01 
freq.    1250.48  E(vib)   ...       0.01 
freq.    1261.47  E(vib)   ...       0.01 
freq.    1300.28  E(vib)   ...       0.01 
freq.    1317.97  E(vib)   ...       0.01 
freq.    1360.43  E(vib)   ...       0.01 
freq.    1373.66  E(vib)   ...       0.01 
freq.    1387.65  E(vib)   ...       0.00 
freq.    1395.22  E(vib)   ...       0.00 
freq.    1407.55  E(vib)   ...       0.00 
freq.    1409.97  E(vib)   ...       0.00 
freq.    1440.53  E(vib)   ...       0.00 
freq.    1479.96  E(vib)   ...       0.00 
freq.    1483.21  E(vib)   ...       0.00 
freq.    1492.90  E(vib)   ...       0.00 
freq.    1514.71  E(vib)   ...       0.00 
freq.    1520.44  E(vib)   ...       0.00 
freq.    1584.33  E(vib)   ...       0.00 
freq.    1619.86  E(vib)   ...       0.00 
freq.    2978.14  E(vib)   ...       0.00 
freq.    3003.82  E(vib)   ...       0.00 
freq.    3015.19  E(vib)   ...       0.00 
freq.    3044.82  E(vib)   ...       0.00 
freq.    3053.39  E(vib)   ...       0.00 
freq.    3091.84  E(vib)   ...       0.00 
freq.    3093.76  E(vib)   ...       0.00 
freq.    3116.73  E(vib)   ...       0.00 
freq.    3474.01  E(vib)   ...       0.00 
freq.    3732.63  E(vib)   ...       0.00 
freq.    3734.58  E(vib)   ...       0.00 

------------
INNER ENERGY
------------

The inner energy is: U= E(el) + E(ZPE) + E(vib) + E(rot) + E(trans)
    E(el)   - is the total energy from the electronic structure calculation
              = E(kin-el) + E(nuc-el) + E(el-el) + E(nuc-nuc)
    E(ZPE)  - the the zero temperature vibrational energy from the frequency calculation
    E(vib)  - the the finite temperature correction to E(ZPE) due to population
              of excited vibrational states
    E(rot)  - is the rotational thermal energy
    E(trans)- is the translational thermal energy

Summary of contributions to the inner energy U:
Electronic energy                ...   -591.62750366 Eh
Zero point energy                ...      0.18532953 Eh     116.30 kcal/mol
Thermal vibrational correction   ...      0.00913185 Eh       5.73 kcal/mol
Thermal rotational correction    ...      0.00141627 Eh       0.89 kcal/mol
Thermal translational correction ...      0.00141627 Eh       0.89 kcal/mol
-----------------------------------------------------------------------
Total thermal energy                   -591.43020975 Eh


Summary of corrections to the electronic energy:
(perhaps to be used in another calculation)
Total thermal correction                  0.01196439 Eh       7.51 kcal/mol
Non-thermal (ZPE) correction              0.18532953 Eh     116.30 kcal/mol
-----------------------------------------------------------------------
Total correction                          0.19729392 Eh     123.80 kcal/mol


--------
ENTHALPY
--------

The enthalpy is H = U + kB*T
                kB is Boltzmann's constant
Total thermal energy              ...   -591.43020975 Eh 
Thermal Enthalpy correction       ...      0.00094421 Eh       0.59 kcal/mol
-----------------------------------------------------------------------
Total Enthalpy                    ...   -591.42926554 Eh


Note: Only C1 symmetry has been detected, increase convergence thresholds 
      if your molecule has a higher symmetry. Symmetry factor of 1.0 is   
      used for the rotational entropy correction. 
 

Note: Rotational entropy computed according to Herzberg 
Infrared and Raman Spectra, Chapter V,1, Van Nostrand Reinhold, 1945 
Point Group:  C1, Symmetry Number:   1  
Rotational constants in cm-1:     0.042245     0.027556     0.017657 

Vibrational entropy computed according to the QRRHO of S. Grimme
Chem.Eur.J. 2012 18 9955 using a reference frequency of 100.0 cm-1


-------
ENTROPY
-------

The entropy contributions are T*S = T*(S(el)+S(vib)+S(rot)+S(trans))
     S(el)   - electronic entropy
     S(vib)  - vibrational entropy
     S(rot)  - rotational entropy
     S(trans)- translational entropy
The entropies will be listed as multiplied by the temperature to get
units of energy

Electronic entropy                ...      0.00000000 Eh      0.00 kcal/mol
Vibrational entropy               ...      0.01566634 Eh      9.83 kcal/mol
Rotational entropy                ...      0.01460581 Eh      9.17 kcal/mol
Translational entropy             ...      0.01961591 Eh     12.31 kcal/mol
-----------------------------------------------------------------------
Final entropy term                ...      0.04988805 Eh     31.31 kcal/mol

In case the symmetry of your molecule has not been determined correctly
or in case you have a reason to use a different symmetry number we print 
out the resulting rotational entropy values for sn=1,12:

 non-linear molecules -----------------------------------
|  sn= 1 | S(rot)=       0.01460581 Eh      9.17 kcal/mol|
|  sn= 2 | S(rot)=       0.01395135 Eh      8.75 kcal/mol|
|  sn= 3 | S(rot)=       0.01356852 Eh      8.51 kcal/mol|
|  sn= 4 | S(rot)=       0.01329690 Eh      8.34 kcal/mol|
|  sn= 5 | S(rot)=       0.01308621 Eh      8.21 kcal/mol|
|  sn= 6 | S(rot)=       0.01291406 Eh      8.10 kcal/mol|
|  sn= 7 | S(rot)=       0.01276852 Eh      8.01 kcal/mol|
|  sn= 8 | S(rot)=       0.01264244 Eh      7.93 kcal/mol|
|  sn= 9 | S(rot)=       0.01253123 Eh      7.86 kcal/mol|
|  sn=10 | S(rot)=       0.01243175 Eh      7.80 kcal/mol|
|  sn=11 | S(rot)=       0.01234176 Eh      7.74 kcal/mol|
|  sn=12 | S(rot)=       0.01225961 Eh      7.69 kcal/mol|
 linear molecules ---------------------------------------
|  Dinfh | S(rot)=       0.00913710 Eh      5.73 kcal/mol|
|  Cinfv | S(rot)=       0.00979156 Eh      6.14 kcal/mol|
 --------------------------------------------------------


-------------------
GIBBS FREE ENERGY
-------------------

The Gibbs free energy is G = H - T*S

Total enthalpy                    ...   -591.42926554 Eh 
Total entropy correction          ...     -0.04988805 Eh    -31.31 kcal/mol
-----------------------------------------------------------------------
Final Gibbs free energy         ...   -591.47915359 Eh

For completeness - the Gibbs free energy minus the electronic energy
G-E(el)                           ...      0.14835007 Eh     93.09 kcal/mol


Maximum memory used throughout the entire PROP-calculation: 69.6 MB

--------------------------------
SUGGESTED CITATIONS FOR THIS RUN
--------------------------------

Below you find a list of papers that are relevant to this ORCA run
We neither can nor want to force you to cite these papers, but we appreciate if you do
You receive ORCA, which is the product of decades of hard work by many enthusiastic individuals, for free
The only thing we kindly ask in return is that you cite our papers,
We deeply appreciate it, if you show your appreciation for ORCA by not just citing the generic ORCA reference.

Please note that relegating all ORCA citations to the supporting information does *not* help us.
SI sections are not indexed - citations you put there will not count into any citation statistics
But we need these citations in order to attract the funding resources that allow us to do what we are doing

Therefore, if you are a happy ORCA user, please consider citing a few of the papers listed below in the main body of your paper

In addition to the list printed below, the program has created the file m1_00_Vitamin_B6-GFN2_001-B97-3C-TZ.bibtex that contains the list in bibtex format
You can import this file easily into all common literature databanks and citation aid programs


List of essential papers. We consider these as the minimum necessary citations

  1. Neese,F.
     Software update: the ORCA program system, version 5.0
     WIRES Comput. Molec. Sci., 2022 12(1)e1606
     doi.org/10.1002/wcms.1606

List of papers to cite with high priority. The work reported in these papers was absolutely
necessary for this run to complete.
Our perspective: the developers of density functionals and basis sets usually get cited in chemistry papers
Good! But without the algorithms to do something with them, the functionals or basis sets would not do anything.
Hence, in our opinion, the algorithm design and method developments papers are equally worthy of getting cited

  1. Neese,F.
     An improvement of the resolution of the identity approximation for the formation of the Coulomb matrix
     J. Comp. Chem., 2003 24(14)1740-1747
     doi.org/10.1002/jcc.10318
  2. Bykov,D.; Petrenko,T.; Izsak,R.; Kossmann,S.; Becker,U.; Valeev,E.; Neese,F.
     Efficient implementation of the analytic second derivatives of Hartree-Fock and hybrid DFT energies: a detailed analysis of different approximations
     Molec. Phys., 2015 113 1961-1977
     doi.org/10.1080/00268976.2015.1025114
  3. Neese,F.
     The SHARK Integral Generation and Digestion System
     J. Comp. Chem., 2022  1-16
     doi.org/10.1002/jcc.26942
  4. Grimme,S.; Antony,J.; Ehrlich,S.; Krieg,H.
     A consistent and accurate ab initio parametrization of density functional dispersion correction (DFT-D) for the 94 elements H-Pu
     J. Chem. Phys., 2010 132 154104
     doi.org/10.1063/1.3382344
  5. Grimme,S.; Ehrlich,S.; Goerigk,L.
     Effect of the damping function in dispersion corrected density functional theory
     J. Comput. Chem., 2011 32(7)1456-1465
     doi.org/10.1002/jcc.21759

List of suggested additional citations. These are papers that are important in the 'surrounding' of 
of this run, or papers that preceded the highly important papers. If you like your results we are grateful for a citation.

  1. Neese,F.
     The ORCA program system
     WIRES Comput. Molec. Sci., 2012 2(1)73-78
     doi.org/10.1002/wcms.81
  2. Neese,F.
     Software update: the ORCA program system, version 4.0
     WIRES Comput. Molec. Sci., 2018 8(1)1-6
     doi.org/10.1002/wcms.1327
  3. Neese,F.; Wennmohs,F.; Becker,U.; Riplinger,C.
     The ORCA quantum chemistry program package
     J. Chem. Phys., 2020 152 Art. No. L224108
     doi.org/10.1063/5.0004608

List of optional additional citations

  1. Neese,F.
     Approximate second-order SCF convergence for spin unrestricted wavefunctions
     Chem. Phys. Lett., 2000 325(1-3)93-98
     doi.org/10.1016/s0009-2614(00)00662-x

Timings for individual modules:

Sum of individual times          ...      162.244 sec (=   2.704 min)
Startup calculation              ...       24.831 sec (=   0.414 min)  15.3 %
SCF iterations                   ...       38.251 sec (=   0.638 min)  23.6 %
Property integrals               ...       34.845 sec (=   0.581 min)  21.5 %
SCF Response                     ...       25.443 sec (=   0.424 min)  15.7 %
Property calculations            ...       15.876 sec (=   0.265 min)   9.8 %
SCF Gradient evaluation          ...       22.948 sec (=   0.382 min)  14.1 %
Geometry relaxation              ...        0.049 sec (=   0.001 min)   0.0 %
                             ****ORCA TERMINATED NORMALLY****
TOTAL RUN TIME: 0 days 0 hours 2 minutes 44 seconds 464 msec
