
                                 *****************
                                 * O   R   C   A *
                                 *****************

                                            #,                                       
                                            ###                                      
                                            ####                                     
                                            #####                                    
                                            ######                                   
                                           ########,                                 
                                     ,,################,,,,,                         
                               ,,#################################,,                 
                          ,,##########################################,,             
                       ,#########################################, ''#####,          
                    ,#############################################,,   '####,        
                  ,##################################################,,,,####,       
                ,###########''''           ''''###############################       
              ,#####''   ,,,,##########,,,,          '''####'''          '####       
            ,##' ,,,,###########################,,,                        '##       
           ' ,,###''''                  '''############,,,                           
         ,,##''                                '''############,,,,        ,,,,,,###''
      ,#''                                            '''#######################'''  
     '                                                          ''''####''''         
             ,#######,   #######,   ,#######,      ##                                
            ,#'     '#,  ##    ##  ,#'     '#,    #''#        ,####,   ,####,        
            ##       ##  ##   ,#'  ##            #'  '#       #'       #'  '#        
            ##       ##  #######   ##           ,######,      #####,   #    #        
            '#,     ,#'  ##    ##  '#,     ,#' ,#      #,     #,   #   #,  ,#        
             '#######'   ##     ##  '#######'  #'      '#     '####' # '####'        



                #########################################################
                #                        -***-                          #
                #          Department of theory and spectroscopy        #
                #                                                       #
                #                      Frank Neese                      #
                #                                                       #
                #     Directorship, Architecture, Infrastructure        #
                #                    SHARK, DRIVERS                     #
                #        Core code/Algorithms in most modules           #
                #                                                       #
                #        Max Planck Institute fuer Kohlenforschung      #
                #                Kaiser Wilhelm Platz 1                 #
                #                 D-45470 Muelheim/Ruhr                 #
                #                      Germany                          #
                #                                                       #
                #                  All rights reserved                  #
                #                        -***-                          #
                #########################################################


                         Program Version 6.0.1  -  RELEASE   -


 With contributions from (in alphabetic order):
[Max-Planck-Institut fuer Kohlenforschung]                               
  Daniel Aravena         : Magnetic Suceptibility                        
  Michael Atanasov       : Ab Initio Ligand Field Theory (pilot matlab implementation)
  Alexander A. Auer      : GIAO ZORA, VPT2 properties, NMR spectrum      
  Ute Becker             : All parallelization in ORCA, NUMFREQ, NUMCALC 
  Giovanni Bistoni       : ED, misc. LED, open-shell LED, HFLD           
  Martin Brehm           : Molecular dynamics                            
  Dmytro Bykov           : pre 5.0 version of the SCF Hessian            
  Marcos Casanova-Páez   : Triplet and SCS-CIS(D). UHF-(DLPNO)-IP/EA/STEOM-CCSD. UHF-CVS-IP/STEOM-CCSD   
  Vijay G. Chilkuri      : MRCI spin determinant printing, contributions to CSF-ICE 
  Pauline Colinet        : FMM embedding                                 
  Dipayan Datta          : RHF DLPNO-CCSD density                        
  Achintya Kumar Dutta   : EOM-CC, STEOM-CC                              
  Nicolas Foglia         : Exact transition moments, OPA infrastructure, MCD improvements    
  Dmitry Ganyushin       : Spin-Orbit,Spin-Spin,Magnetic field MRCI      
  Miquel Garcia-Rates    : C-PCM and meta-GGA Hessian, CCSD/C-PCM, Gaussian charge scheme 
  Tiago L. C. Gouveia    : GS-ROHF, GS-ROCIS                             
  Yang Guo               : DLPNO-NEVPT2, F12-NEVPT2, CIM, IAO-localization        
  Andreas Hansen         : Spin unrestricted coupled pair/coupled cluster methods 
  Ingolf Harden          : AUTO-CI MPn and infrastructure                
  Benjamin Helmich-Paris : MC-RPA, TRAH-(SCF,CASSCF), AVAS, COSX integrals, SCF dyn. polar. 
  Lee Huntington         : MR-EOM, pCC                                   
  Robert Izsak           : Overlap fitted RIJCOSX, COSX-SCS-MP3, EOM     
  Riya Kayal             : Wick's Theorem for AUTO-CI, AUTO-CI UHF-CCSDT 
  Emily Kempfer          : AUTO-CI, RHF CISDT and CCSDT                  
  Christian Kollmar      : KDIIS, OOCD, Brueckner-CCSD(T), CCSD density, CASPT2, CASPT2-K, improved NEVPT2 
  Axel Koslowski         : Symmetry handling                             
  Simone Kossmann        : meta-GGA functionals, TD-DFT gradient, OOMP2, (MP2 Hessian; deprecated post 5.0) 
  Lucas Lang             : DCDCAS                                        
  Marvin Lechner         : AUTO-CI (C++ implementation), FIC-MRCC        
  Spencer Leger          : CASSCF response                               
  Dagmar Lenk            : GEPOL surface, SMD, ORCA-2-JSON               
  Dimitrios Liakos       : Extrapolation schemes; Compound Job, initial MDCI parallelization 
  Dimitrios Manganas     : Further ROCIS development; embedding schemes. LFT, Crystal Embedding 
  Dimitrios Pantazis     : SARC Basis sets                               
  Anastasios Papadopoulos: AUTO-CI, single reference methods and gradients 
  Taras Petrenko         : pre 6.0 DFT Hessian and TD-DFT gradient, (ASA, deprecated), ECA, 1-Electron XAS/XES, NRVS 
  Peter Pinski           : DLPNO-MP2, DLPNO-MP2 Gradient                 
  Christoph Reimann      : Effective Core Potentials                     
  Marius Retegan         : Local ZFS, SOC                                
  Christoph Riplinger    : Optimizer, TS searches, QM/MM, DLPNO-CCSD(T), (RO)-DLPNO pert. Triples 
  Michael Roemelt        : Original ROCIS implementation                 
  Masaaki Saitow         : Open-shell DLPNO-CCSD energy and density      
  Barbara Sandhoefer     : DKH picture change effects                    
  Kantharuban Sivalingam : CASSCF convergence/infrastructure, NEVPT2 and variants, FIC-MRCI 
  Bernardo de Souza      : ESD, SOC TD-DFT                               
  Georgi L. Stoychev     : AutoAux, RI-MP2 NMR, DLPNO-MP2 response, X2C  
  Van Anh Tran           : RI-MP2 g-tensors                              
  Willem Van den Heuvel  : Paramagnetic NMR                              
  Zikuan Wang            : NOTCH, Electric field optimization            
  Frank Wennmohs         : Technical directorship and infrastructure     
  Hang Xu                : AUTO-CI-Response properties                   
                                                                         
[FACCTs GmbH]                                                            
  Markus Bursch, Miquel Garcia-Rates, Christoph Riplinger, Bernardo de Souza, Georgi L. Stoychev 
                                                                 
  APM, Basis sets (HGBS, AHGBS, def-TZVP (Ac-Lr), def2-XVPD (La-Lu)), CI-OPT, improved COSX, DLPNO-Multilevel,           
  DOCKER, DRACO, updates on ESD, GOAT, IRC, LR-CPCM, MBIS, meta-GGA TD-DFT gradient, ML-optimized integration grids, 
  MM, NACMEs, nearIR, NEB, NEB-TS, NL-DFT gradient (VV10), 2- and 3-layer-ONIOM, interface openCOSMO-RS, QMMM,   
  Crystal-QMMM, SF, symmetry and pop. for TD-DFT, r2SCAN hybrids, SOLVATOR                                   
                                                                         
[Other institutions]                                                     
  V. Asgeirsson          : NEB                                           
  Christoph Bannwarth    : sTDA-DFT, sTD-DFT, PBEh-3c, B97-3c, D3        
  Sebastian Ehlert       : rSCAN, r2SCAN, r2SCAN-3c, D4, dhf basis sets  
  Marvin Friede          : D4 for Fr, Ra, Ac-Lr                          
  Lars Goerigk           : TD-DFT with DH, B97 family of functionals     
  Stefan Grimme          : VdW corrections, initial TS optimization, DFT functionals, gCP, sTDA/sTD-DF 
  Waldemar Hujo          : DFT-NL                                        
  H. Jonsson             : NEB                                           
  Holger Kruse           : gCP                                           
  Marcel Mueller         : wB97X-3c, vDZP basis set                      
  Hagen Neugebauer       : wr2SCAN                                       
  Tobias Risthaus        : range-separated hybrid DFT                    
  Lukas Wittmann         : regularized MP2, r2SCAN double-hybrids, wr2SCAN        
                                                                         
We gratefully acknowledge several colleagues who have allowed us to      
interface, adapt or use parts of their codes:                            
  Ed Valeev, F. Pavosevic, A. Kumar             : LibInt (2-el integral package), F12 methods 
  Garnet Chan, S. Sharma, J. Yang, R. Olivares  : DMRG                   
  Ulf Ekstrom                                   : XCFun DFT Library      
  Mihaly Kallay                                 : mrcc  (arbitrary order and MRCC methods)
  Frank Weinhold                                : gennbo (NPA and NBO analysis)           
  Simon Mueller                                 : openCOSMO-RS                            
  Christopher J. Cramer and Donald G. Truhlar   : smd solvation model                     
  S Lehtola, MJT Oliveira, MAL Marques          : LibXC Library                           
  Liviu Ungur et al                             : ANISO software                          


 Your calculation uses the libint2 library for the computation of 2-el integrals
 For citations please refer to: http://libint.valeyev.net

 Your ORCA version has been built with support for libXC version: 6.2.2
 For citations please refer to: https://libxc.gitlab.io

 This ORCA versions uses:
   CBLAS   interface :  Fast vector & matrix operations
   LAPACKE interface :  Fast linear algebra routines
   SCALAPACK package :  Parallel linear algebra routines
   Shared memory     :  Shared parallel matrices
   BLAS/LAPACK       :  OpenBLAS 0.3.27  USE64BITINT DYNAMIC_ARCH NO_AFFINITY Zen SINGLE_THREADED
        Core in use  :  Zen
   Copyright (c) 2011-2014, The OpenBLAS Project


NOTE: MaxCore=6000 MB was set to SCF,MP2,MDCI,CIPSI,MRCI and CIS
      => If you want to overwrite this, your respective input block should be placed after the MaxCore statement
Your calculation utilizes the atom-pairwise dispersion correction
with the Becke-Johnson damping scheme (D3BJ)


Your calculation employs the composite approach B97-3c by Grimme and coworkers.
For the correct reference, please check the publication list of the Grimme group:
http://www.thch.uni-bonn.de/tc/index.php?section=publikationen&subsection=grimme#2017
   

XCFun DFT library Copyright 2009-2010 Ulf Ekstrom and contributors.
See http://admol.org/xcfun for more information.
This is free software; see the source code for copying conditions.
There is ABSOLUTELY NO WARRANTY; not even for MERCHANTABILITY or FITNESS FOR A PARTICULAR PURPOSE.
For details see the documentation.
Scientific users of this library should cite U. Ekstrom, L. Visscher, R. Bast, A. J. Thorvaldsen and K. Ruud;
J.Chem.Theor.Comp. 2010, DOI: 10.1021/ct100117s
XCFun Version 0.99 

================================================================================

----- Orbital basis set information -----
Your calculation utilizes the basis: def2-mTZVP
----- AuxJ basis set information -----
Your calculation utilizes the basis: def2-mTZVP/J
================================================================================
                                        WARNINGS
                       Please study these warnings very carefully!
================================================================================


WARNING: Geometry Optimization
  ===> : Switching off AutoStart
         For restart on a previous wavefunction, please use MOREAD

================================================================================
                                       INPUT FILE
================================================================================
NAME = m1_00_Vitamin_B5-GFN2_0000-B97-3C-TZ.inp
|  1> %pal nprocs 16 end
|  2> %MaxCore 6000
|  3> # put your comments here
|  4> ! B97-3C  OPT  FREQ DEFGRID3 NOTRAH
|  5> %scf MaxIter 800 end
|  6> %output
|  7> Print [P_Hirshfeld] 1
|  8> end
|  9> %geom
| 10> MaxIter 3000
| 11>  TolE 1e-6 #TolE 5e-6 Energy change (a.u.)
| 12>  TolRMSG 3e-5 #TolRMSG 1e-4 RMS gradient (a.u.)
| 13>  TolMaxG 1e-4 #TolMaxG 3e-3 Max. element of gradient (a.u.)
| 14>  TolRMSD 2e-3 #TolRMSD 2e-3 RMS displacement (a.u.)
| 15>  TolMaxD 4e-3 #TolMaxD 4e-3 Max. displacement (a.u.)
| 16> end
| 17> * xyz 0 1
| 18>  O -0.23154461043904 -3.81015951203738 -2.62105487063895
| 19>  O -2.26952556614846 -1.30659565212028 -0.33484149932201
| 20>  O -3.45761640317445 -2.38574905567112 -2.51210481740960
| 21>  O -3.55685142840968 -3.54937871871648 0.36984641618583
| 22>  O -1.58139974989698 -4.40169383990554 -0.20290674649848
| 23>  N -2.74151283728937 -4.49843983895695 -2.84308142102293
| 24>  C -0.68911842538032 -1.40054159507330 -2.29732252827704
| 25>  C -1.08925352237068 -2.74916449571971 -2.96793729106768
| 26>  C -0.92422838809843 -1.39078028499833 -0.77523174608588
| 27>  C -1.42242436772276 -0.23667387986673 -2.97168120999193
| 28>  C 0.81924921762009 -1.22008019933939 -2.51775936888710
| 29>  C -2.54901135666348 -3.16852789238033 -2.74222868480357
| 30>  C -3.89077289295291 -5.12832010359106 -2.23605620775567
| 31>  C -3.55976138925907 -5.60635846518300 -0.80265473646653
| 32>  C -2.79020162106050 -4.47684814554427 -0.15100001527578
| 33>  H -0.96041388108637 -2.62149188206899 -4.05224633563398
| 34>  H -0.40362547054836 -0.52033391948309 -0.35710506313870
| 35>  H -0.47667823910634 -2.28851322657920 -0.32951819581062
| 36>  H -1.10292450252650 -0.14787321345129 -4.00770260149226
| 37>  H -1.18604358365106 0.69212869057103 -2.45732895692466
| 38>  H -2.49955119430750 -0.37368354675732 -2.96344966109018
| 39>  H 1.14294444191831 -0.25759406674206 -2.13030304361981
| 40>  H 1.05064986206954 -1.26256050562783 -3.57915945375790
| 41>  H 1.37967975930549 -2.00534852761133 -2.01760345032223
| 42>  H -1.90313800934883 -5.05676566527991 -2.95780685341556
| 43>  H -0.35324924000861 -4.01026534137038 -1.67709707382989
| 44>  H -4.67976657784991 -4.37316271706692 -2.19973092469118
| 45>  H -4.21569356369960 -5.97057666741342 -2.84962469659422
| 46>  H -2.85320683893678 -1.35892383505518 -1.11164150409030
| 47>  H -2.93068498044692 -6.49604210687688 -0.83551854520771
| 48>  H -4.47929787304284 -5.80955941350530 -0.25876617207710
| 49>  H -3.05370976749537 -2.69769937657929 0.48732225901048
| 50> *
| 51> 
| 52> 
| 53> 
| 54> 
| 55>                          ****END OF INPUT****
================================================================================

                       *****************************
                       * Geometry Optimization Run *
                       *****************************

Geometry optimization settings:
Update method            Update   .... BFGS
Choice of coordinates    CoordSys .... (2022) Redundant Internals
Initial Hessian          InHess   .... Almloef's Model
Max. no of cycles        MaxIter  .... 3000

Convergence Tolerances:
Energy Change            TolE     ....  1.0000e-06 Eh
Max. Gradient            TolMAXG  ....  1.0000e-04 Eh/bohr
RMS Gradient             TolRMSG  ....  3.0000e-05 Eh/bohr
Max. Displacement        TolMAXD  ....  4.0000e-03 bohr
RMS Displacement         TolRMSD  ....  2.0000e-03 bohr
Strict Convergence                .... False

------------------------------------------------------------------------------
                        ORCA OPTIMIZATION COORDINATE SETUP
------------------------------------------------------------------------------

The optimization will be done in redundant internal coordinates (2022)
Making redundant internal coordinates   ...  (2022 redundants) done
Evaluating the initial hessian          ...  (Almloef) done
Evaluating the coordinates              ...  done
Calculating the B-matrix                .... done
Calculating the G-matrix                .... done
Diagonalizing the G-matrix              .... done
Small eigenvalue found = 1.299e-02
Small eigenvalue found = 2.546e-02
The first mode is                       ....   57
The number of degrees of freedom        ....   90

    -----------------------------------------------------------------
                    Redundant Internal Coordinates


    -----------------------------------------------------------------
         Definition                    Initial Value    Approx d2E/dq
    -----------------------------------------------------------------
      1. B(C   7,C   6)                  1.5584         0.336561   
      2. B(C   7,O   0)                  1.4077         0.524311   
      3. B(C   8,C   6)                  1.5402         0.359871   
      4. B(C   8,O   1)                  1.4180         0.504812   
      5. B(C   9,C   6)                  1.5320         0.370813   
      6. B(C  10,C   6)                  1.5350         0.366729   
      7. B(C  11,N   5)                  1.3476         0.654034   
      8. B(C  11,O   2)                  1.2212         1.040468   
      9. B(C  11,C   7)                  1.5355         0.366127   
     10. B(C  12,N   5)                  1.4443         0.458384   
     11. B(C  13,C  12)                  1.5468         0.351158   
     12. B(C  14,C  13)                  1.5142         0.395963   
     13. B(C  14,O   4)                  1.2122         1.075147   
     14. B(C  14,O   3)                  1.3112         0.747487   
     15. B(H  15,C   7)                  1.0994         0.347909   
     16. B(H  16,C   8)                  1.0971         0.350884   
     17. B(H  17,C   8)                  1.0977         0.350091   
     18. B(H  18,C   9)                  1.0878         0.363024   
     19. B(H  19,C   9)                  1.0877         0.363145   
     20. B(H  20,C   9)                  1.0858         0.365650   
     21. B(H  21,C  10)                  1.0869         0.364268   
     22. B(H  22,C  10)                  1.0872         0.363874   
     23. B(H  23,C  10)                  1.0867         0.364512   
     24. B(H  24,N   5)                  1.0138         0.426731   
     25. B(H  24,O   0)                  2.1123         0.007544   
     26. B(H  25,O   0)                  0.9726         0.496475   
     27. B(H  25,O   4)                  1.9583         0.013283   
     28. B(H  26,C  12)                  1.0927         0.356486   
     29. B(H  27,C  12)                  1.0915         0.358083   
     30. B(H  28,O   1)                  0.9731         0.495604   
     31. B(H  28,O   2)                  1.8387         0.020606   
     32. B(H  29,C  13)                  1.0901         0.359946   
     33. B(H  30,C  13)                  1.0875         0.363425   
     34. B(H  31,O   3)                  0.9961         0.455298   
     35. B(H  31,O   4)                  2.3554         0.003089   
     36. B(H  31,O   1)                  1.7961         0.024098   
     37. A(C   7,O   0,H  25)          108.5413         0.356834   
     38. A(C   8,O   1,H  28)          108.5392         0.354441   
     39. A(C  14,O   3,H  31)          110.8722         0.373586   
     40. A(C  12,N   5,H  24)          117.7372         0.340059   
     41. A(C  11,N   5,H  24)          115.7127         0.361092   
     42. A(C  11,N   5,C  12)          120.8384         0.409842   
     43. A(C   7,C   6,C   8)          113.0516         0.354692   
     44. A(C   7,C   6,C  10)          106.9921         0.355829   
     45. A(C   8,C   6,C   9)          110.9238         0.360584   
     46. A(C   7,C   6,C   9)          110.1888         0.356499   
     47. A(C   9,C   6,C  10)          108.5309         0.361747   
     48. A(C   8,C   6,C  10)          106.9282         0.359904   
     49. A(C  11,C   7,H  15)          106.7450         0.321430   
     50. A(C   6,C   7,C  11)          114.6575         0.355730   
     51. A(O   0,C   7,C  11)          109.7046         0.381455   
     52. A(O   0,C   7,H  15)          105.0202         0.339036   
     53. A(O   0,C   7,C   6)          112.9396         0.375934   
     54. A(C   6,C   7,H  15)          107.0877         0.317042   
     55. A(H  16,C   8,H  17)          107.4977         0.288382   
     56. A(O   1,C   8,H  17)          108.0145         0.337251   
     57. A(O   1,C   8,C   6)          116.8793         0.377828   
     58. A(C   6,C   8,H  16)          108.0140         0.320972   
     59. A(O   1,C   8,H  16)          106.5427         0.337378   
     60. A(C   6,C   8,H  17)          109.5034         0.320853   
     61. A(H  18,C   9,H  19)          108.4715         0.291595   
     62. A(C   6,C   9,H  19)          109.6662         0.324372   
     63. A(C   6,C   9,H  18)          109.9168         0.324354   
     64. A(H  19,C   9,H  20)          108.6470         0.291926   
     65. A(H  18,C   9,H  20)          107.9915         0.291910   
     66. A(C   6,C   9,H  20)          112.0626         0.324739   
     67. A(H  21,C  10,H  23)          108.7995         0.291924   
     68. A(C   6,C  10,H  23)          110.8374         0.323983   
     69. A(H  21,C  10,H  22)          108.6178         0.291844   
     70. A(C   6,C  10,H  22)          110.1670         0.323889   
     71. A(C   6,C  10,H  21)          110.2163         0.323947   
     72. A(H  22,C  10,H  23)          108.1403         0.291875   
     73. A(O   2,C  11,C   7)          124.0546         0.430528   
     74. A(O   2,C  11,N   5)          122.7129         0.475249   
     75. A(N   5,C  11,C   7)          113.2252         0.396461   
     76. A(N   5,C  12,C  13)          110.7300         0.370026   
     77. A(H  26,C  12,H  27)          109.6943         0.290123   
     78. A(C  13,C  12,H  27)          110.2507         0.320751   
     79. A(N   5,C  12,H  27)          109.7021         0.333133   
     80. A(C  13,C  12,H  26)          109.7107         0.320517   
     81. A(N   5,C  12,H  26)          106.6856         0.332886   
     82. A(H  29,C  13,H  30)          110.5195         0.291240   
     83. A(C  14,C  13,H  30)          110.7254         0.327936   
     84. A(C  12,C  13,H  30)          109.8923         0.321529   
     85. A(C  14,C  13,H  29)          109.1773         0.327416   
     86. A(C  12,C  13,H  29)          110.3511         0.321023   
     87. A(C  12,C  13,C  14)          106.0835         0.363123   
     88. A(O   4,C  14,C  13)          122.3180         0.439227   
     89. A(O   3,C  14,C  13)          113.6687         0.411566   
     90. A(O   3,C  14,O   4)          123.7927         0.490069   
     91. D(O   0,C   7,C   6,C   8)    -69.3853         0.009189   
     92. D(O   0,C   7,C   6,C   9)    165.8648         0.009189   
     93. D(C  11,C   7,C   6,C   9)    -67.4696         0.009189   
     94. D(C  11,C   7,O   0,H  25)    -61.5626         0.023675   
     95. D(C   6,C   7,O   0,H  25)     67.6924         0.023675   
     96. D(C  11,C   7,C   6,C   8)     57.2803         0.009189   
     97. D(C  11,C   7,C   6,C  10)    174.7268         0.009189   
     98. D(H  15,C   7,O   0,H  25)   -175.9534         0.023675   
     99. D(O   0,C   7,C   6,C  10)     48.0612         0.009189   
    100. D(O   1,C   8,C   6,C   9)     51.0315         0.010391   
    101. D(O   1,C   8,C   6,C  10)    169.1979         0.010391   
    102. D(O   1,C   8,C   6,C   7)    -73.3181         0.010391   
    103. D(H  16,C   8,O   1,H  28)    126.5346         0.021873   
    104. D(C   6,C   8,O   1,H  28)      5.7221         0.021873   
    105. D(H  17,C   8,O   1,H  28)   -118.2253         0.021873   
    106. D(H  16,C   8,C   6,C   7)    166.6486         0.010391   
    107. D(H  16,C   8,C   6,C  10)     49.1646         0.010391   
    108. D(H  16,C   8,C   6,C   9)    -69.0017         0.010391   
    109. D(H  19,C   9,C   6,C  10)    -66.7125         0.010989   
    110. D(H  19,C   9,C   6,C   8)     50.4769         0.010989   
    111. D(H  19,C   9,C   6,C   7)    176.4379         0.010989   
    112. D(H  18,C   9,C   6,C  10)     52.4542         0.010989   
    113. D(H  18,C   9,C   6,C   8)    169.6436         0.010989   
    114. D(H  18,C   9,C   6,C   7)    -64.3954         0.010989   
    115. D(H  22,C  10,C   6,C   9)    -62.7332         0.010763   
    116. D(H  22,C  10,C   6,C   8)    177.5486         0.010763   
    117. D(H  22,C  10,C   6,C   7)     56.1503         0.010763   
    118. D(H  21,C  10,C   6,C   9)     57.1135         0.010763   
    119. D(H  21,C  10,C   6,C   8)    -62.6047         0.010763   
    120. D(H  21,C  10,C   6,C   7)    175.9970         0.010763   
    121. D(O   2,C  11,N   5,C  12)    -22.2303         0.034947   
    122. D(N   5,C  11,C   7,O   0)    -26.9336         0.010054   
    123. D(O   2,C  11,C   7,H  15)    -92.6933         0.010054   
    124. D(O   2,C  11,C   7,C   6)     25.7147         0.010054   
    125. D(O   2,C  11,C   7,O   0)    154.0268         0.010054   
    126. D(C   7,C  11,N   5,H  24)      5.9524         0.034947   
    127. D(C   7,C  11,N   5,C  12)    158.7154         0.034947   
    128. D(N   5,C  11,C   7,C   6)   -155.2457         0.010054   
    129. D(O   2,C  11,N   5,H  24)   -174.9933         0.034947   
    130. D(H  27,C  12,N   5,C  11)    146.4014         0.017934   
    131. D(H  26,C  12,N   5,H  24)    179.8811         0.017934   
    132. D(H  26,C  12,N   5,C  11)     27.6488         0.017934   
    133. D(C  13,C  12,N   5,H  24)     60.5464         0.017934   
    134. D(C  13,C  12,N   5,C  11)    -91.6859         0.017934   
    135. D(H  29,C  13,C  12,H  27)     47.4090         0.009930   
    136. D(H  29,C  13,C  12,H  26)    168.3221         0.009930   
    137. D(H  29,C  13,C  12,N   5)    -74.1815         0.009930   
    138. D(C  14,C  13,C  12,H  27)    165.5459         0.009930   
    139. D(C  14,C  13,C  12,H  26)    -73.5410         0.009930   
    140. D(C  14,C  13,C  12,N   5)     43.9553         0.009930   
    141. D(O   4,C  14,C  13,H  29)     28.4587         0.011647   
    142. D(O   4,C  14,C  13,C  12)    -90.4542         0.011647   
    143. D(O   3,C  14,C  13,H  30)    -34.8529         0.011647   
    144. D(O   3,C  14,C  13,H  29)   -156.7499         0.011647   
    145. D(O   3,C  14,C  13,C  12)     84.3372         0.011647   
    146. D(C  13,C  14,O   3,H  31)   -159.6205         0.042405   
    147. D(O   4,C  14,O   3,H  31)     15.0826         0.042405   
    -----------------------------------------------------------------

Number of atoms                         .... 32
Number of degrees of freedom            .... 147


         *************************************************************
         *                GEOMETRY OPTIMIZATION CYCLE   1            *
         *************************************************************
---------------------------------
CARTESIAN COORDINATES (ANGSTROEM)
---------------------------------
  O     -0.231545   -3.810160   -2.621055
  O     -2.269526   -1.306596   -0.334841
  O     -3.457616   -2.385749   -2.512105
  O     -3.556851   -3.549379    0.369846
  O     -1.581400   -4.401694   -0.202907
  N     -2.741513   -4.498440   -2.843081
  C     -0.689118   -1.400542   -2.297323
  C     -1.089254   -2.749164   -2.967937
  C     -0.924228   -1.390780   -0.775232
  C     -1.422424   -0.236674   -2.971681
  C      0.819249   -1.220080   -2.517759
  C     -2.549011   -3.168528   -2.742229
  C     -3.890773   -5.128320   -2.236056
  C     -3.559761   -5.606358   -0.802655
  C     -2.790202   -4.476848   -0.151000
  H     -0.960414   -2.621492   -4.052246
  H     -0.403625   -0.520334   -0.357105
  H     -0.476678   -2.288513   -0.329518
  H     -1.102925   -0.147873   -4.007703
  H     -1.186044    0.692129   -2.457329
  H     -2.499551   -0.373684   -2.963450
  H      1.142944   -0.257594   -2.130303
  H      1.050650   -1.262561   -3.579159
  H      1.379680   -2.005349   -2.017603
  H     -1.903138   -5.056766   -2.957807
  H     -0.353249   -4.010265   -1.677097
  H     -4.679767   -4.373163   -2.199731
  H     -4.215694   -5.970577   -2.849625
  H     -2.853207   -1.358924   -1.111642
  H     -2.930685   -6.496042   -0.835519
  H     -4.479298   -5.809559   -0.258766
  H     -3.053710   -2.697699    0.487322

----------------------------
CARTESIAN COORDINATES (A.U.)
----------------------------
  NO LB      ZA    FRAG     MASS         X           Y           Z
   0 O     8.0000    0    15.999   -0.437556   -7.200158   -4.953076
   1 O     8.0000    0    15.999   -4.288782   -2.469108   -0.632759
   2 O     8.0000    0    15.999   -6.533948   -4.508412   -4.747190
   3 O     8.0000    0    15.999   -6.721475   -6.707354    0.698908
   4 O     8.0000    0    15.999   -2.988412   -8.317996   -0.383438
   5 N     7.0000    0    14.007   -5.180708   -8.500819   -5.372645
   6 C     6.0000    0    12.011   -1.302245   -2.646640   -4.341310
   7 C     6.0000    0    12.011   -2.058391   -5.195168   -5.608589
   8 C     6.0000    0    12.011   -1.746539   -2.628194   -1.464976
   9 C     6.0000    0    12.011   -2.687993   -0.447249   -5.615664
  10 C     6.0000    0    12.011    1.548157   -2.305617   -4.757876
  11 C     6.0000    0    12.011   -4.816933   -5.987650   -5.182061
  12 C     6.0000    0    12.011   -7.352495   -9.691121   -4.225534
  13 C     6.0000    0    12.011   -6.726974  -10.594482   -1.516798
  14 C     6.0000    0    12.011   -5.272717   -8.460017   -0.285349
  15 H     1.0000    0     1.008   -1.814919   -4.953902   -7.657636
  16 H     1.0000    0     1.008   -0.762742   -0.983289   -0.674831
  17 H     1.0000    0     1.008   -0.900791   -4.324663   -0.622699
  18 H     1.0000    0     1.008   -2.084225   -0.279440   -7.573460
  19 H     1.0000    0     1.008   -2.241298    1.307934   -4.643679
  20 H     1.0000    0     1.008   -4.723467   -0.706160   -5.600108
  21 H     1.0000    0     1.008    2.159852   -0.486782   -4.025689
  22 H     1.0000    0     1.008    1.985441   -2.385894   -6.763631
  23 H     1.0000    0     1.008    2.607217   -3.789560   -3.812718
  24 H     1.0000    0     1.008   -3.596410   -9.555902   -5.589445
  25 H     1.0000    0     1.008   -0.667544   -7.578303   -3.169254
  26 H     1.0000    0     1.008   -8.843477   -8.264080   -4.156889
  27 H     1.0000    0     1.008   -7.966506  -11.282755   -5.385010
  28 H     1.0000    0     1.008   -5.391780   -2.567994   -2.100698
  29 H     1.0000    0     1.008   -5.538192  -12.275741   -1.578901
  30 H     1.0000    0     1.008   -8.464646  -10.978476   -0.488997
  31 H     1.0000    0     1.008   -5.770675   -5.097913    0.920906

--------------------------------
INTERNAL COORDINATES (ANGSTROEM)
--------------------------------
 O      0   0   0     0.000000000000     0.00000000     0.00000000
 O      1   0   0     3.955751503280     0.00000000     0.00000000
 O      2   1   0     2.704922819917    60.56655815     0.00000000
 O      2   1   3     2.680274019148    82.51943421    71.83565985
 O      4   2   1     2.226408898947    80.01093249    26.91751161
 N      3   2   1     2.255174533156   110.63497153    34.94006713
 C      1   2   3     2.473951279101    38.06137193    92.75003780
 C      1   2   3     1.407729525108    49.57192900    43.11605853
 C      2   1   3     1.418046233071    45.10382797   217.43528294
 C      7   1   2     1.532020004823   140.43205387   250.05828225
 C      7   1   2     1.535034743092    85.06472184   136.71188661
 C      3   2   1     1.221172728196    94.62370239     8.60891407
 C      6   3   2     1.444308634905    95.40557057    99.38926925
 C     13   6   3     1.546844875424   110.72998874   258.34363048
 C      5   4   2     1.212247681842    29.30325134   215.82888439
 H      8   1   2     1.099375301510   105.02018125   170.42351488
 H      9   2   1     1.097057061411   106.54272630   178.82594070
 H      9   2   1     1.097673056589   108.01449957   294.06598977
 H     10   7   1     1.087798715693   109.91676797   307.19416363
 H     10   7   1     1.087707833090   109.66617674   188.02745234
 H     10   7   1     1.085836823730   112.06258475    67.28242912
 H     11   7   1     1.086867313735   110.21628656   199.02919979
 H     11   7   1     1.087161889894   110.16702165    79.18248047
 H     11   7   1     1.086685180867   110.83741366   319.53379954
 H      6   3   2     1.013785976082   142.66865694   305.88326195
 H      1   2   3     0.972579396218    60.31759740   238.01031236
 H     13   6   3     1.092745734112   106.68561068    17.67834605
 H     13   6   3     1.091529134781   109.70213273   136.43087249
 H      2   1   3     0.973057199933    79.25843904   347.66568491
 H     14  13   6     1.090116571907   110.35109821   285.81845733
 H     14  13   6     1.087498386611   109.89231517   163.69117160
 H      4   2   1     0.996147482263    22.02733228   127.88672208

---------------------------
INTERNAL COORDINATES (A.U.)
---------------------------
 O      0   0   0     0.000000000000     0.00000000     0.00000000
 O      1   0   0     7.475286995047     0.00000000     0.00000000
 O      2   1   0     5.111563343038    60.56655815     0.00000000
 O      2   1   3     5.064983860054    82.51943421    71.83565985
 O      4   2   1     4.207303081135    80.01093249    26.91751161
 N      3   2   1     4.261662251858   110.63497153    34.94006713
 C      1   2   3     4.675090386165    38.06137193    92.75003780
 C      1   2   3     2.660223273089    49.57192900    43.11605853
 C      2   1   3     2.679719025743    45.10382797   217.43528294
 C      7   1   2     2.895098240805   140.43205387   250.05828225
 C      7   1   2     2.900795270498    85.06472184   136.71188661
 C      3   2   1     2.307682018504    94.62370239     8.60891407
 C      6   3   2     2.729347772828    95.40557057    99.38926925
 C     13   6   3     2.923113186211   110.72998874   258.34363048
 C      5   4   2     2.290816125162    29.30325134   215.82888439
 H      8   1   2     2.077518238252   105.02018125   170.42351488
 H      9   2   1     2.073137399352   106.54272630   178.82594070
 H      9   2   1     2.074301461537   108.01449957   294.06598977
 H     10   7   1     2.055641661490   109.91676797   307.19416363
 H     10   7   1     2.055469918261   109.66617674   188.02745234
 H     10   7   1     2.051934222976   112.06258475    67.28242912
 H     11   7   1     2.053881566870   110.21628656   199.02919979
 H     11   7   1     2.054438235136   110.16702165    79.18248047
 H     11   7   1     2.053537385630   110.83741366   319.53379954
 H      6   3   2     1.915777853206   142.66865694   305.88326195
 H      1   2   3     1.837908702347    60.31759740   238.01031236
 H     13   6   3     2.064990171482   106.68561068    17.67834605
 H     13   6   3     2.062691131932   109.70213273   136.43087249
 H      2   1   3     1.838811620513    79.25843904   347.66568491
 H     14  13   6     2.060021774954   110.35109821   285.81845733
 H     14  13   6     2.055074121776   109.89231517   163.69117160
 H      4   2   1     1.882445930472    22.02733228   127.88672208

---------------------
BASIS SET INFORMATION
---------------------
There are 4 groups of distinct atoms

 Group   1 Type O   : 11s6p2d contracted to 5s3p2d pattern {62111/411/11}
 Group   2 Type N   : 11s6p1d contracted to 5s3p1d pattern {62111/411/1}
 Group   3 Type C   : 11s6p1d contracted to 5s3p1d pattern {62111/411/1}
 Group   4 Type H   : 5s contracted to 3s pattern {311}

Atom   0O    basis set group =>   1
Atom   1O    basis set group =>   1
Atom   2O    basis set group =>   1
Atom   3O    basis set group =>   1
Atom   4O    basis set group =>   1
Atom   5N    basis set group =>   2
Atom   6C    basis set group =>   3
Atom   7C    basis set group =>   3
Atom   8C    basis set group =>   3
Atom   9C    basis set group =>   3
Atom  10C    basis set group =>   3
Atom  11C    basis set group =>   3
Atom  12C    basis set group =>   3
Atom  13C    basis set group =>   3
Atom  14C    basis set group =>   3
Atom  15H    basis set group =>   4
Atom  16H    basis set group =>   4
Atom  17H    basis set group =>   4
Atom  18H    basis set group =>   4
Atom  19H    basis set group =>   4
Atom  20H    basis set group =>   4
Atom  21H    basis set group =>   4
Atom  22H    basis set group =>   4
Atom  23H    basis set group =>   4
Atom  24H    basis set group =>   4
Atom  25H    basis set group =>   4
Atom  26H    basis set group =>   4
Atom  27H    basis set group =>   4
Atom  28H    basis set group =>   4
Atom  29H    basis set group =>   4
Atom  30H    basis set group =>   4
Atom  31H    basis set group =>   4
---------------------------------
AUXILIARY/J BASIS SET INFORMATION
---------------------------------
There are 4 groups of distinct atoms

 Group   1 Type O   : 8s3p3d contracted to 6s3p3d pattern {311111/111/111}
 Group   2 Type N   : 8s3p3d contracted to 6s3p3d pattern {311111/111/111}
 Group   3 Type C   : 8s3p3d contracted to 6s3p3d pattern {311111/111/111}
 Group   4 Type H   : 5s2p contracted to 3s1p pattern {311/2}

Atom   0O    basis set group =>   1
Atom   1O    basis set group =>   1
Atom   2O    basis set group =>   1
Atom   3O    basis set group =>   1
Atom   4O    basis set group =>   1
Atom   5N    basis set group =>   2
Atom   6C    basis set group =>   3
Atom   7C    basis set group =>   3
Atom   8C    basis set group =>   3
Atom   9C    basis set group =>   3
Atom  10C    basis set group =>   3
Atom  11C    basis set group =>   3
Atom  12C    basis set group =>   3
Atom  13C    basis set group =>   3
Atom  14C    basis set group =>   3
Atom  15H    basis set group =>   4
Atom  16H    basis set group =>   4
Atom  17H    basis set group =>   4
Atom  18H    basis set group =>   4
Atom  19H    basis set group =>   4
Atom  20H    basis set group =>   4
Atom  21H    basis set group =>   4
Atom  22H    basis set group =>   4
Atom  23H    basis set group =>   4
Atom  24H    basis set group =>   4
Atom  25H    basis set group =>   4
Atom  26H    basis set group =>   4
Atom  27H    basis set group =>   4
Atom  28H    basis set group =>   4
Atom  29H    basis set group =>   4
Atom  30H    basis set group =>   4
Atom  31H    basis set group =>   4


           ************************************************************
           *        Program running with 16 parallel MPI-processes    *
           *              working on a common directory               *
           ************************************************************
------------------------------------------------------------------------------
                             ORCA STARTUP CALCULATIONS
                           -- RI-GTO INTEGRALS CHOSEN --
------------------------------------------------------------------------------
------------------------------------------------------------------------------
                   ___                                                        
                  /   \      - P O W E R E D   B Y -                         
                 /     \                                                     
                 |  |  |   _    _      __       _____    __    __             
                 |  |  |  | |  | |    /  \     |  _  \  |  |  /  |          
                  \  \/   | |  | |   /    \    | | | |  |  | /  /          
                 / \  \   | |__| |  /  /\  \   | |_| |  |  |/  /          
                |  |  |   |  __  | /  /__\  \  |    /   |      \           
                |  |  |   | |  | | |   __   |  |    \   |  |\   \          
                \     /   | |  | | |  |  |  |  | |\  \  |  | \   \       
                 \___/    |_|  |_| |__|  |__|  |_| \__\ |__|  \__/        
                                                                              
                      - O R C A' S   B I G   F R I E N D -                    
                                      &                                       
                       - I N T E G R A L  F E E D E R -                       
                                                                              
 v1 FN, 2020, v2 2021, v3 2022-2024                                           
------------------------------------------------------------------------------


----------------------
SHARK INTEGRAL PACKAGE
----------------------

Number of atoms                             ...     32
Number of basis functions                   ...    361
Number of shells                            ...    191
Maximum angular momentum                    ...      2
Integral batch strategy                     ... SHARK/LIBINT Hybrid
RI-J (if used) integral strategy            ... SPLIT-RIJ (Revised 2003 algorithm where possible)
Printlevel                                  ...      1
Contraction scheme used                     ... SEGMENTED contraction
Prescreening option                         ... SCHWARTZ
   Thresh                                   ... 2.500e-11
   Tcut                                     ... 2.500e-12
   Tpresel                                  ... 2.500e-12 
Coulomb Range Separation                    ... NOT USED
Exchange Range Separation                   ... NOT USED
Multipole approximations                    ... NOT USED
Finite Nucleus Model                        ... NOT USED
CABS basis                                  ... NOT available
Auxiliary Coulomb fitting basis             ... AVAILABLE
   # of basis functions in Aux-J            ...    552
   # of shells in Aux-J                     ...    248
   Maximum angular momentum in Aux-J        ...      2
Auxiliary J/K fitting basis                 ... NOT available
Auxiliary Correlation fitting basis         ... NOT available
Auxiliary 'external' fitting basis          ... NOT available

Checking pre-screening integrals            ... done (  0.0 sec) Dimension = 191
Check shell pair data                       ... done (  0.0 sec)
Shell pair information
Shell pair cut-off parameter TPreSel        ...   2.5e-12
Total number of shell pairs                 ...     18336
Shell pairs after pre-screening             ...     15838
Total number of primitive shell pairs       ...     65361
Primitive shell pairs kept                  ...     37796
          la=0 lb=0:   6498 shell pairs
          la=1 lb=0:   5102 shell pairs
          la=1 lb=1:   1003 shell pairs
          la=2 lb=0:   2183 shell pairs
          la=2 lb=1:    855 shell pairs
          la=2 lb=2:    197 shell pairs

Calculating one electron integrals          ... done (  0.0 sec)
Calculating RI/J V-Matrix + Cholesky decomp.... done (  0.0 sec)
Calculating Nuclear repulsion               ... done (  0.0 sec) ENN=   1203.293008045333 Eh

Diagonalization of the overlap matrix:
Smallest eigenvalue                        ... 3.886e-05
Time for diagonalization                   ...    0.010 sec
Threshold for overlap eigenvalues          ... 1.000e-07
Number of eigenvalues below threshold      ... 0
Time for construction of square roots      ...    0.005 sec
Total time needed                          ...    0.016 sec

-------------------
DFT GRID GENERATION
-------------------

General Integration Accuracy     IntAcc      ... 4.959
Radial Grid Type                 RadialGrid  ... OptM3 with GC (2021)
Angular Grid (max. ang.)         AngularGrid ... 6 (Lebedev-590)
Angular grid pruning method      GridPruning ... 4 (adaptive)
Weight generation scheme         WeightScheme... mBecke (2022)
Basis function cutoff            BFCut       ... 1.0000e-11
Integration weight cutoff        WCut        ... 1.0000e-14
Partially contracted basis set               ... off
Rotationally invariant grid construction     ... off
Angular grids for H and He will be reduced by one unit
Diffuse basis detected: some atoms will have their outermost
                        angular grid increased by 1.

Total number of grid points                  ...   358852
Total number of batches                      ...     5623
Average number of points per batch           ...       63
Average number of grid points per atom       ...    11214
Initializing property integral containers    ... done (  0.0 sec)

SHARK setup successfully completed in   2.7 seconds

Maximum memory used throughout the entire STARTUP-calculation: 82.4 MB


           ************************************************************
           *        Program running with 16 parallel MPI-processes    *
           *              working on a common directory               *
           ************************************************************
-------------------------------------------------------------------------------
                                 ORCA GUESS
                   Start orbitals & Density for SCF / CASSCF
-------------------------------------------------------------------------------

------------
SCF SETTINGS
------------
Hamiltonian:
 Density Functional     Method          .... DFT(GTOs)
 Exchange Functional    Exchange        .... B973C
 Correlation Functional Correlation     .... B973C
 Gradients option       PostSCFGGA      .... off
 RI-approximation to the Coulomb term is turned on
   Number of AuxJ basis functions       .... 552


General Settings:
 Integral files         IntName         .... m1_00_Vitamin_B5-GFN2_0000-B97-3C-TZ
 Hartree-Fock type      HFTyp           .... RHF
 Total Charge           Charge          ....    0
 Multiplicity           Mult            ....    1
 Number of Electrons    NEL             ....  118
 Basis Dimension        Dim             ....  361
 Nuclear Repulsion      ENuc            ....   1203.2930080453 Eh

Convergence Acceleration:
 AO-DIIS                CNVDIIS         .... on
   Start iteration      DIISMaxIt       ....    12
   Startup error        DIISStart       ....  0.200000
   # of expansion vecs  DIISMaxEq       ....     5
   Bias factor          DIISBfac        ....   1.050
   Max. coefficient     DIISMaxC        ....  10.000
 MO-DIIS                CNVKDIIS        .... off
 Trust-Rad. Augm. Hess. CNVTRAH         .... off
 SOSCF                  CNVSOSCF        .... on
   Start iteration      SOSCFMaxIt      ....   150
   Startup grad/error   SOSCFStart      ....  0.003300
   Hessian update       SOSCFHessUp     .... L-BFGS
 Level Shifting         CNVShift        .... on
   Level shift para.    LevelShift      ....    0.2500
   Turn off err/grad.   ShiftErr        ....    0.0010
 Zerner damping         CNVZerner       .... off
 Static damping         CNVDamp         .... on
   Fraction old density DampFac         ....    0.7000
   Max. Damping (<1)    DampMax         ....    0.9800
   Min. Damping (>=0)   DampMin         ....    0.0000
   Turn off err/grad.   DampErr         ....    0.1000

SCF Procedure:
 Maximum # iterations   MaxIter         ....   800
 SCF integral mode      SCFMode         .... Direct
   Integral package                     .... SHARK and LIBINT hybrid scheme
 Reset frequency        DirectResetFreq ....    20
 Integral Threshold     Thresh          ....  2.500e-11 Eh
 Primitive CutOff       TCut            ....  2.500e-12 Eh

Convergence Tolerance:
 Convergence Check Mode ConvCheckMode   .... Total+1el-Energy
 Convergence forced     ConvForced      .... 0
 Energy Change          TolE            ....  1.000e-08 Eh
 1-El. energy change                    ....  1.000e-05 Eh
 Orbital Gradient       TolG            ....  1.000e-05
 Orbital Rotation angle TolX            ....  1.000e-05
 DIIS Error             TolErr          ....  5.000e-07

--------------------------------
INITIAL GUESS: MINIMAL BASIS EHT
--------------------------------
The minimal basis has 92 functions
EHT matrix was diagonalized
Basis set overlap was calculated now projecting the orbitals
Using GuessMode=FMatrix for the initial guess
C*T matrix was formed
Effective Fockian was calculated
Effective Fockian was diagonalized
Initial density was built
                      ------------------
                      INITIAL GUESS DONE
                      ------------------
             **** ENERGY FILE WAS UPDATED (m1_00_Vitamin_B5-GFN2_0000-B97-3C-TZ.en.tmp) ****
Finished Guess after   0.2 sec
Maximum memory used throughout the entire GUESS-calculation: 26.8 MB


           ************************************************************
           *        Program running with 16 parallel MPI-processes    *
           *              working on a common directory               *
           ************************************************************

-------------------------------------------------------------------------------------------
                                      ORCA LEAN-SCF
                              memory conserving SCF solver
-------------------------------------------------------------------------------------------

----------------------------------------D-I-I-S--------------------------------------------
Iteration    Energy (Eh)           Delta-E    RMSDP     MaxDP     DIISErr   Damp  Time(sec)
-------------------------------------------------------------------------------------------
               ***  Starting incremental Fock matrix formation  ***
    1    -780.9555217147583335     0.00e+00  5.62e-03  1.74e-01  4.43e-01  0.700   0.6
    2    -781.9458715447804025    -9.90e-01  4.07e-03  2.11e-01  3.14e-01  0.700   0.6
    3    -782.4168397967014243    -4.71e-01  2.50e-03  6.86e-02  2.25e-01  0.700   0.6
                               ***Turning on AO-DIIS***
    4    -782.7700864254184125    -3.53e-01  1.77e-03  4.49e-02  1.57e-01  0.700   0.6
    5    -783.0189706564995049    -2.49e-01  1.26e-03  3.22e-02  1.07e-01  0.700   0.6
    6    -783.1933920064875565    -1.74e-01  8.89e-04  2.29e-02  7.51e-02  0.700   0.6
    7    -783.3160781710478204    -1.23e-01  2.18e-03  9.85e-02  5.26e-02  0.000   0.6
    8    -783.5993395993887134    -2.83e-01  3.99e-04  3.05e-02  2.94e-02  0.000   0.6
    9    -783.6021815690771746    -2.84e-03  1.43e-04  4.53e-03  1.05e-02  0.000   0.6
   10    -783.6022902367326424    -1.09e-04  5.24e-05  1.70e-03  6.35e-03  0.000   0.6
                              *** Initializing SOSCF ***
---------------------------------------S-O-S-C-F--------------------------------------
Iteration    Energy (Eh)           Delta-E    RMSDP     MaxDP     MaxGrad    Time(sec)
--------------------------------------------------------------------------------------
   11    -783.6024488440491496    -1.59e-04  1.81e-05  5.49e-04  1.13e-03     0.6
               *** Restarting incremental Fock matrix formation ***
   12    -783.6024564754757193    -7.63e-06  1.95e-05  1.12e-03  6.01e-05     0.6
   13    -783.6024551317120768     1.34e-06  1.06e-05  3.90e-04  1.12e-04     0.5
   14    -783.6024569974954375    -1.87e-06  5.76e-06  7.04e-04  1.94e-05     0.5
   15    -783.6024568973209625     1.00e-07  2.99e-06  2.83e-04  5.71e-05     0.5
   16    -783.6024570024280820    -1.05e-07  3.26e-06  5.02e-04  3.30e-06     0.5
   17    -783.6024570127215156    -1.03e-08  1.05e-06  1.10e-04  3.98e-06     0.5
   18    -783.6024570221352405    -9.41e-09  2.58e-06  3.30e-04  2.54e-06     0.5
                 **** Energy Check signals convergence ****

               *****************************************************
               *                     SUCCESS                       *
               *           SCF CONVERGED AFTER  18 CYCLES          *
               *****************************************************

             **** ENERGY FILE WAS UPDATED (m1_00_Vitamin_B5-GFN2_0000-B97-3C-TZ.en.tmp) ****

----------------
TOTAL SCF ENERGY
----------------

Total Energy       :       -783.60245702213524 Eh          -21322.90689 eV

Components:
Nuclear Repulsion  :       1203.29300804533341 Eh           32743.26738 eV
Electronic Energy  :      -1986.89546506746865 Eh          -54066.17428 eV
One Electron Energy:      -3461.90681826073705 Eh          -94203.27373 eV
Two Electron Energy:       1475.01135319326841 Eh           40137.09945 eV

Virial components:
Potential Energy   :      -1564.49119590253395 Eh          -42571.96976 eV
Kinetic Energy     :        780.88873888039859 Eh           21249.06287 eV
Virial Ratio       :          2.00347516618773

DFT components:
N(Alpha)           :       58.999975249218 electrons
N(Beta)            :       58.999975249218 electrons
N(Total)           :      117.999950498437 electrons
E(XC)              :     -104.605635491211 Eh       

---------------
SCF CONVERGENCE
---------------

  Last Energy change         ...    9.4137e-09  Tolerance :   1.0000e-08
  Last MAX-Density change    ...    3.2953e-04  Tolerance :   1.0000e-07
  Last RMS-Density change    ...    2.5782e-06  Tolerance :   5.0000e-09
  Last DIIS Error            ...    1.1299e-03  Tolerance :   5.0000e-07
  Last Orbital Gradient      ...    2.5434e-06  Tolerance :   1.0000e-05
  Last Orbital Rotation      ...    9.8754e-06  Tolerance :   1.0000e-05


----------------
ORBITAL ENERGIES
----------------

  NO   OCC          E(Eh)            E(eV) 
   0   2.0000     -18.785887      -511.1900 
   1   2.0000     -18.751313      -510.2492 
   2   2.0000     -18.745352      -510.0869 
   3   2.0000     -18.738337      -509.8961 
   4   2.0000     -18.727282      -509.5952 
   5   2.0000     -14.023043      -381.5864 
   6   2.0000     -10.025075      -272.7962 
   7   2.0000      -9.996101      -272.0077 
   8   2.0000      -9.957926      -270.9689 
   9   2.0000      -9.948030      -270.6997 
  10   2.0000      -9.933341      -270.2999 
  11   2.0000      -9.919234      -269.9161 
  12   2.0000      -9.913685      -269.7651 
  13   2.0000      -9.879853      -268.8445 
  14   2.0000      -9.876935      -268.7651 
  15   2.0000      -1.032299       -28.0903 
  16   2.0000      -0.983855       -26.7721 
  17   2.0000      -0.956187       -26.0192 
  18   2.0000      -0.946207       -25.7476 
  19   2.0000      -0.940017       -25.5792 
  20   2.0000      -0.869410       -23.6578 
  21   2.0000      -0.751201       -20.4412 
  22   2.0000      -0.730168       -19.8689 
  23   2.0000      -0.658989       -17.9320 
  24   2.0000      -0.629469       -17.1287 
  25   2.0000      -0.618823       -16.8390 
  26   2.0000      -0.613488       -16.6938 
  27   2.0000      -0.562729       -15.3126 
  28   2.0000      -0.546550       -14.8724 
  29   2.0000      -0.521806       -14.1991 
  30   2.0000      -0.502634       -13.6774 
  31   2.0000      -0.471814       -12.8387 
  32   2.0000      -0.465524       -12.6675 
  33   2.0000      -0.448010       -12.1910 
  34   2.0000      -0.436923       -11.8893 
  35   2.0000      -0.433470       -11.7953 
  36   2.0000      -0.419584       -11.4174 
  37   2.0000      -0.413298       -11.2464 
  38   2.0000      -0.400481       -10.8977 
  39   2.0000      -0.394801       -10.7431 
  40   2.0000      -0.388075       -10.5601 
  41   2.0000      -0.375591       -10.2203 
  42   2.0000      -0.372424       -10.1342 
  43   2.0000      -0.364051        -9.9063 
  44   2.0000      -0.348191        -9.4748 
  45   2.0000      -0.344753        -9.3812 
  46   2.0000      -0.343625        -9.3505 
  47   2.0000      -0.338444        -9.2095 
  48   2.0000      -0.330298        -8.9879 
  49   2.0000      -0.325711        -8.8631 
  50   2.0000      -0.302828        -8.2404 
  51   2.0000      -0.298975        -8.1355 
  52   2.0000      -0.286183        -7.7874 
  53   2.0000      -0.285125        -7.7587 
  54   2.0000      -0.253687        -6.9032 
  55   2.0000      -0.245122        -6.6701 
  56   2.0000      -0.234495        -6.3809 
  57   2.0000      -0.229596        -6.2476 
  58   2.0000      -0.216179        -5.8825 
  59   0.0000      -0.042843        -1.1658 
  60   0.0000      -0.033427        -0.9096 
  61   0.0000       0.018544         0.5046 
  62   0.0000       0.034831         0.9478 
  63   0.0000       0.046259         1.2588 
  64   0.0000       0.055757         1.5172 
  65   0.0000       0.061015         1.6603 
  66   0.0000       0.066364         1.8059 
  67   0.0000       0.070757         1.9254 
  68   0.0000       0.074263         2.0208 
  69   0.0000       0.083864         2.2820 
*Only the first 10 virtual orbitals were printed.

                    ********************************
                    * MULLIKEN POPULATION ANALYSIS *
                    ********************************

-----------------------
MULLIKEN ATOMIC CHARGES
-----------------------
   0 O :   -0.607193
   1 O :   -0.594472
   2 O :   -0.490752
   3 O :   -0.431253
   4 O :   -0.441844
   5 N :   -0.284094
   6 C :    0.176056
   7 C :   -0.081333
   8 C :   -0.280423
   9 C :   -0.520132
  10 C :   -0.498420
  11 C :    0.246836
  12 C :   -0.276483
  13 C :   -0.330849
  14 C :    0.390320
  15 H :    0.194560
  16 H :    0.159032
  17 H :    0.173779
  18 H :    0.165100
  19 H :    0.171380
  20 H :    0.199818
  21 H :    0.179110
  22 H :    0.170107
  23 H :    0.180804
  24 H :    0.351481
  25 H :    0.433470
  26 H :    0.202816
  27 H :    0.204613
  28 H :    0.431830
  29 H :    0.195804
  30 H :    0.182218
  31 H :    0.428109
Sum of atomic charges:   -0.0000000

--------------------------------
MULLIKEN REDUCED ORBITAL CHARGES
--------------------------------
  0 O s       :     3.811171  s :     3.811171
      pz      :     1.473427  p :     4.758660
      px      :     1.722702
      py      :     1.562531
      dz2     :     0.021629  d :     0.037361
      dxz     :     0.004631
      dyz     :     0.002732
      dx2y2   :     0.000115
      dxy     :     0.008255

  1 O s       :     3.795833  s :     3.795833
      pz      :     1.612626  p :     4.776967
      px      :     1.269950
      py      :     1.894391
      dz2     :     0.006060  d :     0.021672
      dxz     :     0.006274
      dyz     :     0.005053
      dx2y2   :     0.001189
      dxy     :     0.003096

  2 O s       :     3.847079  s :     3.847079
      pz      :     1.484561  p :     4.593080
      px      :     1.513282
      py      :     1.595237
      dz2     :     0.011826  d :     0.050593
      dxz     :     0.010123
      dyz     :     0.007436
      dx2y2   :     0.005990
      dxy     :     0.015219

  3 O s       :     3.752400  s :     3.752400
      pz      :     1.660652  p :     4.653108
      px      :     1.666302
      py      :     1.326155
      dz2     :     0.004624  d :     0.025745
      dxz     :     0.006648
      dyz     :    -0.000592
      dx2y2   :     0.006278
      dxy     :     0.008786

  4 O s       :     3.815091  s :     3.815091
      pz      :     1.536683  p :     4.589584
      px      :     1.326435
      py      :     1.726466
      dz2     :     0.011751  d :     0.037168
      dxz     :     0.001006
      dyz     :     0.002400
      dx2y2   :     0.015271
      dxy     :     0.006741

  5 N s       :     3.334682  s :     3.334682
      pz      :     1.602962  p :     3.907115
      px      :     1.163037
      py      :     1.141116
      dz2     :     0.005322  d :     0.042296
      dxz     :     0.004252
      dyz     :     0.006151
      dx2y2   :     0.011701
      dxy     :     0.014870

  6 C s       :     2.859424  s :     2.859424
      pz      :     1.004996  p :     2.910913
      px      :     0.943707
      py      :     0.962211
      dz2     :     0.013889  d :     0.053606
      dxz     :     0.007200
      dyz     :     0.010883
      dx2y2   :     0.012334
      dxy     :     0.009300

  7 C s       :     3.172807  s :     3.172807
      pz      :     1.093974  p :     2.838139
      px      :     0.864656
      py      :     0.879509
      dz2     :     0.017822  d :     0.070387
      dxz     :     0.005476
      dyz     :     0.009376
      dx2y2   :     0.021662
      dxy     :     0.016052

  8 C s       :     3.277656  s :     3.277656
      pz      :     1.022355  p :     2.938461
      px      :     0.766254
      py      :     1.149852
      dz2     :     0.012176  d :     0.064306
      dxz     :     0.013736
      dyz     :     0.008303
      dx2y2   :     0.011607
      dxy     :     0.018483

  9 C s       :     3.247676  s :     3.247676
      pz      :     1.085031  p :     3.235007
      px      :     1.119970
      py      :     1.030006
      dz2     :     0.010313  d :     0.037449
      dxz     :     0.003479
      dyz     :     0.007168
      dx2y2   :     0.011816
      dxy     :     0.004673

 10 C s       :     3.249556  s :     3.249556
      pz      :     1.130808  p :     3.211235
      px      :     0.952043
      py      :     1.128384
      dz2     :     0.009891  d :     0.037629
      dxz     :     0.005849
      dyz     :     0.005120
      dx2y2   :     0.008384
      dxy     :     0.008385

 11 C s       :     3.167331  s :     3.167331
      pz      :     0.735097  p :     2.475907
      px      :     0.913636
      py      :     0.827174
      dz2     :     0.006636  d :     0.109926
      dxz     :     0.011433
      dyz     :     0.020546
      dx2y2   :     0.047132
      dxy     :     0.024179

 12 C s       :     3.222975  s :     3.222975
      pz      :     0.960846  p :     2.998282
      px      :     0.928856
      py      :     1.108580
      dz2     :     0.012518  d :     0.055226
      dxz     :     0.010276
      dyz     :     0.011847
      dx2y2   :     0.005910
      dxy     :     0.014676

 13 C s       :     3.164513  s :     3.164513
      pz      :     0.993981  p :     3.124891
      px      :     1.120675
      py      :     1.010235
      dz2     :     0.008260  d :     0.041445
      dxz     :     0.008614
      dyz     :     0.007309
      dx2y2   :     0.005714
      dxy     :     0.011548

 14 C s       :     3.128883  s :     3.128883
      pz      :     0.792484  p :     2.355849
      px      :     0.762472
      py      :     0.800893
      dz2     :     0.011062  d :     0.124948
      dxz     :     0.030584
      dyz     :     0.009691
      dx2y2   :     0.026989
      dxy     :     0.046623

 15 H s       :     0.805440  s :     0.805440

 16 H s       :     0.840968  s :     0.840968

 17 H s       :     0.826221  s :     0.826221

 18 H s       :     0.834900  s :     0.834900

 19 H s       :     0.828620  s :     0.828620

 20 H s       :     0.800182  s :     0.800182

 21 H s       :     0.820890  s :     0.820890

 22 H s       :     0.829893  s :     0.829893

 23 H s       :     0.819196  s :     0.819196

 24 H s       :     0.648519  s :     0.648519

 25 H s       :     0.566530  s :     0.566530

 26 H s       :     0.797184  s :     0.797184

 27 H s       :     0.795387  s :     0.795387

 28 H s       :     0.568170  s :     0.568170

 29 H s       :     0.804196  s :     0.804196

 30 H s       :     0.817782  s :     0.817782

 31 H s       :     0.571891  s :     0.571891



                     *******************************
                     * LOEWDIN POPULATION ANALYSIS *
                     *******************************

----------------------
LOEWDIN ATOMIC CHARGES
----------------------
   0 O :   -0.769267
   1 O :   -0.756844
   2 O :   -0.595541
   3 O :   -0.501046
   4 O :   -0.494593
   5 N :   -0.170931
   6 C :   -0.098981
   7 C :    0.115467
   8 C :    0.030888
   9 C :   -0.394411
  10 C :   -0.387995
  11 C :    0.279374
  12 C :   -0.159762
  13 C :   -0.226014
  14 C :    0.354113
  15 H :    0.206357
  16 H :    0.175870
  17 H :    0.191038
  18 H :    0.158163
  19 H :    0.163191
  20 H :    0.189526
  21 H :    0.157468
  22 H :    0.161923
  23 H :    0.174101
  24 H :    0.316084
  25 H :    0.373763
  26 H :    0.198775
  27 H :    0.161094
  28 H :    0.380795
  29 H :    0.178102
  30 H :    0.186914
  31 H :    0.402380

-------------------------------
LOEWDIN REDUCED ORBITAL CHARGES
-------------------------------
  0 O s       :     3.536053  s :     3.536053
      pz      :     1.496090  p :     4.831191
      px      :     1.722146
      py      :     1.612955
      dz2     :     0.090052  d :     0.402023
      dxz     :     0.052181
      dyz     :     0.069739
      dx2y2   :     0.087630
      dxy     :     0.102421

  1 O s       :     3.531652  s :     3.531652
      pz      :     1.606484  p :     4.836152
      px      :     1.369435
      py      :     1.860234
      dz2     :     0.065108  d :     0.389040
      dxz     :     0.106170
      dyz     :     0.034739
      dx2y2   :     0.076888
      dxy     :     0.106135

  2 O s       :     3.533189  s :     3.533189
      pz      :     1.467965  p :     4.708375
      px      :     1.611126
      py      :     1.629284
      dz2     :     0.055628  d :     0.353976
      dxz     :     0.044235
      dyz     :     0.059894
      dx2y2   :     0.096125
      dxy     :     0.098094

  3 O s       :     3.494375  s :     3.494375
      pz      :     1.648327  p :     4.694846
      px      :     1.660794
      py      :     1.385725
      dz2     :     0.051198  d :     0.311826
      dxz     :     0.041785
      dyz     :     0.059036
      dx2y2   :     0.074815
      dxy     :     0.084992

  4 O s       :     3.517849  s :     3.517849
      pz      :     1.503109  p :     4.658604
      px      :     1.474589
      py      :     1.680905
      dz2     :     0.056671  d :     0.318141
      dxz     :     0.076543
      dyz     :     0.018999
      dx2y2   :     0.076726
      dxy     :     0.089201

  5 N s       :     3.113904  s :     3.113904
      pz      :     1.515178  p :     3.978239
      px      :     1.250895
      py      :     1.212167
      dz2     :     0.008342  d :     0.078787
      dxz     :     0.007871
      dyz     :     0.010617
      dx2y2   :     0.023371
      dxy     :     0.028585

  6 C s       :     2.855419  s :     2.855419
      pz      :     1.051936  p :     3.137414
      px      :     1.057748
      py      :     1.027730
      dz2     :     0.027723  d :     0.106149
      dxz     :     0.013571
      dyz     :     0.021701
      dx2y2   :     0.024906
      dxy     :     0.018249

  7 C s       :     2.822834  s :     2.822834
      pz      :     1.038326  p :     2.920894
      px      :     0.934687
      py      :     0.947880
      dz2     :     0.033284  d :     0.140804
      dxz     :     0.009708
      dyz     :     0.019021
      dx2y2   :     0.044407
      dxy     :     0.034384

  8 C s       :     2.862085  s :     2.862085
      pz      :     1.025935  p :     2.980094
      px      :     0.870184
      py      :     1.083975
      dz2     :     0.025428  d :     0.126934
      dxz     :     0.029065
      dyz     :     0.012234
      dx2y2   :     0.024717
      dxy     :     0.035490

  9 C s       :     2.975963  s :     2.975963
      pz      :     1.123531  p :     3.356907
      px      :     1.144250
      py      :     1.089125
      dz2     :     0.016221  d :     0.061541
      dxz     :     0.005798
      dyz     :     0.012123
      dx2y2   :     0.018930
      dxy     :     0.008468

 10 C s       :     2.976941  s :     2.976941
      pz      :     1.145565  p :     3.349328
      px      :     1.064262
      py      :     1.139501
      dz2     :     0.015584  d :     0.061726
      dxz     :     0.010014
      dyz     :     0.007433
      dx2y2   :     0.015078
      dxy     :     0.013618

 11 C s       :     2.769773  s :     2.769773
      pz      :     0.764018  p :     2.710145
      px      :     0.996431
      py      :     0.949696
      dz2     :     0.017463  d :     0.240708
      dxz     :     0.021148
      dyz     :     0.040373
      dx2y2   :     0.105426
      dxy     :     0.056298

 12 C s       :     2.912808  s :     2.912808
      pz      :     1.025372  p :     3.143424
      px      :     1.017812
      py      :     1.100240
      dz2     :     0.024482  d :     0.103530
      dxz     :     0.020104
      dyz     :     0.021267
      dx2y2   :     0.011274
      dxy     :     0.026403

 13 C s       :     2.933531  s :     2.933531
      pz      :     1.055165  p :     3.220802
      px      :     1.100675
      py      :     1.064962
      dz2     :     0.015637  d :     0.071681
      dxz     :     0.014201
      dyz     :     0.013104
      dx2y2   :     0.009285
      dxy     :     0.019454

 14 C s       :     2.743496  s :     2.743496
      pz      :     0.759391  p :     2.626041
      px      :     0.979125
      py      :     0.887525
      dz2     :     0.024982  d :     0.276351
      dxz     :     0.062585
      dyz     :     0.021030
      dx2y2   :     0.064179
      dxy     :     0.103574

 15 H s       :     0.793643  s :     0.793643

 16 H s       :     0.824130  s :     0.824130

 17 H s       :     0.808962  s :     0.808962

 18 H s       :     0.841837  s :     0.841837

 19 H s       :     0.836809  s :     0.836809

 20 H s       :     0.810474  s :     0.810474

 21 H s       :     0.842532  s :     0.842532

 22 H s       :     0.838077  s :     0.838077

 23 H s       :     0.825899  s :     0.825899

 24 H s       :     0.683916  s :     0.683916

 25 H s       :     0.626237  s :     0.626237

 26 H s       :     0.801225  s :     0.801225

 27 H s       :     0.838906  s :     0.838906

 28 H s       :     0.619205  s :     0.619205

 29 H s       :     0.821898  s :     0.821898

 30 H s       :     0.813086  s :     0.813086

 31 H s       :     0.597620  s :     0.597620



                      *****************************
                      * MAYER POPULATION ANALYSIS *
                      *****************************

  NA   - Mulliken gross atomic population
  ZA   - Total nuclear charge
  QA   - Mulliken gross atomic charge
  VA   - Mayer's total valence
  BVA  - Mayer's bonded valence
  FA   - Mayer's free valence

  ATOM       NA         ZA         QA         VA         BVA        FA
  0 O      8.6072     8.0000    -0.6072     1.7874     1.7874     0.0000
  1 O      8.5945     8.0000    -0.5945     1.7013     1.7013     0.0000
  2 O      8.4908     8.0000    -0.4908     2.0704     2.0704    -0.0000
  3 O      8.4313     8.0000    -0.4313     1.8893     1.8893     0.0000
  4 O      8.4418     8.0000    -0.4418     1.9941     1.9941    -0.0000
  5 N      7.2841     7.0000    -0.2841     2.9294     2.9294    -0.0000
  6 C      5.8239     6.0000     0.1761     3.5884     3.5884    -0.0000
  7 C      6.0813     6.0000    -0.0813     3.3541     3.3541    -0.0000
  8 C      6.2804     6.0000    -0.2804     3.6662     3.6662    -0.0000
  9 C      6.5201     6.0000    -0.5201     3.6240     3.6240    -0.0000
 10 C      6.4984     6.0000    -0.4984     3.7276     3.7276    -0.0000
 11 C      5.7532     6.0000     0.2468     3.9665     3.9665    -0.0000
 12 C      6.2765     6.0000    -0.2765     3.7359     3.7359    -0.0000
 13 C      6.3308     6.0000    -0.3308     3.7126     3.7126    -0.0000
 14 C      5.6097     6.0000     0.3903     3.8572     3.8572    -0.0000
 15 H      0.8054     1.0000     0.1946     0.9377     0.9377    -0.0000
 16 H      0.8410     1.0000     0.1590     0.9427     0.9427     0.0000
 17 H      0.8262     1.0000     0.1738     0.9721     0.9721    -0.0000
 18 H      0.8349     1.0000     0.1651     0.9545     0.9545     0.0000
 19 H      0.8286     1.0000     0.1714     0.9540     0.9540    -0.0000
 20 H      0.8002     1.0000     0.1998     0.9785     0.9785     0.0000
 21 H      0.8209     1.0000     0.1791     0.9465     0.9465     0.0000
 22 H      0.8299     1.0000     0.1701     0.9547     0.9547     0.0000
 23 H      0.8192     1.0000     0.1808     0.9634     0.9634     0.0000
 24 H      0.6485     1.0000     0.3515     0.8726     0.8726    -0.0000
 25 H      0.5665     1.0000     0.4335     0.8232     0.8232     0.0000
 26 H      0.7972     1.0000     0.2028     0.9708     0.9708    -0.0000
 27 H      0.7954     1.0000     0.2046     0.9312     0.9312    -0.0000
 28 H      0.5682     1.0000     0.4318     0.8306     0.8306     0.0000
 29 H      0.8042     1.0000     0.1958     0.9482     0.9482    -0.0000
 30 H      0.8178     1.0000     0.1822     0.9586     0.9586    -0.0000
 31 H      0.5719     1.0000     0.4281     0.8330     0.8330     0.0000

  Mayer bond orders larger than 0.100000
B(  0-O ,  6-C ) :  -0.1049 B(  0-O ,  7-C ) :   1.0877 B(  0-O , 25-H ) :   0.7196 
B(  1-O ,  8-C ) :   0.8969 B(  1-O , 28-H ) :   0.6936 B(  1-O , 31-H ) :   0.1698 
B(  2-O , 11-C ) :   1.8969 B(  3-O , 14-C ) :   1.2227 B(  3-O , 31-H ) :   0.6419 
B(  4-O , 14-C ) :   1.8275 B(  5-N , 11-C ) :   1.2891 B(  5-N , 12-C ) :   0.8918 
B(  5-N , 24-H ) :   0.7962 B(  6-C ,  7-C ) :   0.7803 B(  6-C ,  8-C ) :   0.9310 
B(  6-C ,  9-C ) :   0.9330 B(  6-C , 10-C ) :   1.0183 B(  7-C , 11-C ) :   0.7645 
B(  7-C , 15-H ) :   0.9336 B(  8-C , 16-H ) :   0.9488 B(  8-C , 17-H ) :   0.9295 
B(  9-C , 18-H ) :   0.9473 B(  9-C , 19-H ) :   0.9430 B(  9-C , 20-H ) :   0.9519 
B( 10-C , 21-H ) :   0.9539 B( 10-C , 22-H ) :   0.9464 B( 10-C , 23-H ) :   0.9505 
B( 12-C , 13-C ) :   0.9465 B( 12-C , 26-H ) :   0.9296 B( 12-C , 27-H ) :   0.9350 
B( 13-C , 14-C ) :   0.9115 B( 13-C , 29-H ) :   0.9643 B( 13-C , 30-H ) :   0.9400 



------------------
HIRSHFELD ANALYSIS
------------------

Total integrated alpha density =     58.999975249
Total integrated beta density  =     58.999975249

  ATOM     CHARGE      SPIN    
   0 O   -0.221071    0.000000
   1 O   -0.213145    0.000000
   2 O   -0.260107    0.000000
   3 O   -0.171118    0.000000
   4 O   -0.264874    0.000000
   5 N   -0.108390    0.000000
   6 C    0.014365    0.000000
   7 C    0.059215    0.000000
   8 C    0.027254    0.000000
   9 C   -0.086419    0.000000
  10 C   -0.079513    0.000000
  11 C    0.168370    0.000000
  12 C    0.021547    0.000000
  13 C   -0.044076    0.000000
  14 C    0.215257    0.000000
  15 H    0.041835    0.000000
  16 H    0.026009    0.000000
  17 H    0.016535    0.000000
  18 H    0.026687    0.000000
  19 H    0.029058    0.000000
  20 H    0.023510    0.000000
  21 H    0.028148    0.000000
  22 H    0.029866    0.000000
  23 H    0.025749    0.000000
  24 H    0.119104    0.000000
  25 H    0.132527    0.000000
  26 H    0.042796    0.000000
  27 H    0.042483    0.000000
  28 H    0.125039    0.000000
  29 H    0.040575    0.000000
  30 H    0.046884    0.000000
  31 H    0.145950    0.000000

  TOTAL   0.000050    0.000000

-------
TIMINGS
-------

Total SCF time: 0 days 0 hours 0 min 11 sec 

Total time                  ....      11.333 sec
Sum of individual times     ....      11.206 sec  ( 98.9%)

SCF preparation             ....       0.212 sec  (  1.9%)
Fock matrix formation       ....       9.436 sec  ( 83.3%)
  Startup                   ....       0.024 sec  (  0.3% of F)
  Split-RI-J                ....       1.442 sec  ( 15.3% of F)
  XC integration            ....       7.615 sec  ( 80.7% of F)
    XC Preparation          ....       0.000 sec  (  0.0% of XC)
    Basis function eval.    ....       1.617 sec  ( 21.2% of XC)
    Density eval.           ....       1.913 sec  ( 25.1% of XC)
    XC-Functional eval.     ....       0.141 sec  (  1.8% of XC)
    XC-Potential eval.      ....       1.552 sec  ( 20.4% of XC)
Diagonalization             ....       0.000 sec  (  0.0%)
Density matrix formation    ....       0.076 sec  (  0.7%)
Total Energy calculation    ....       0.037 sec  (  0.3%)
Population analysis         ....       0.789 sec  (  7.0%)
Orbital Transformation      ....       0.053 sec  (  0.5%)
Orbital Orthonormalization  ....       0.000 sec  (  0.0%)
DIIS solution               ....       0.434 sec  (  3.8%)
SOSCF solution              ....       0.168 sec  (  1.5%)
Finished LeanSCF after  11.4 sec

Maximum memory used throughout the entire LEANSCF-calculation: 67.0 MB


           ************************************************************
           *        Program running with 16 parallel MPI-processes    *
           *              working on a common directory               *
           ************************************************************

------------------------------------------------------------------------------
                         ORCA PROPERTY INTEGRAL CALCULATIONS
------------------------------------------------------------------------------

GBWName                                   ... m1_00_Vitamin_B5-GFN2_0000-B97-3C-TZ.gbw
Number of atoms                           ...     32
Number of basis functions                 ...    361
Max core memory                           ...   6000 MB

Dipole integrals                          ... YES
Quadrupole integrals                      ...  NO
Linear momentum integrals                 ...  NO
Angular momentum integrals                ...  NO
Higher moments length integrals           ...  NO
Higher moments velocity integrals         ...  NO
Kinetic energy integrals                  ...  NO
GIAO right hand sides                     ...  NO
GIAO dipole derivative integrals          ...  NO
SOC integrals                             ...  NO
EPR diamagnetic integrals (GIAO)          ...  NO
EPR gauge integrals                       ...  NO
Field gradient integrals                  ...  NO (   0 nuclei)
Spin-dipole/Fermi contact integrals       ...  NO (   0 nuclei)
Contact density integrals                 ...  NO (   0 nuclei)
Nucleus-orbit integrals                   ...  NO (   0 nuclei)
Geometric perturbations                   ...  NO (  32 nuclei)

Choice of electric origin   ... Center of mass
Position of electric origin ... ( -3.7668, -5.6887, -3.1714) 
Choice of magnetic origin   ... GIAO
Position of magnetic origin ... (  0.0000,  0.0000,  0.0000) 

Calculating integrals                     ... Electric Dipole (Length)     done (  0.0 sec)

Property integrals calculated in   0.0 sec

Maximum memory used throughout the entire PROPINT-calculation: 26.1 MB


-------------------------------------------------------------------------------
                          DFT DISPERSION CORRECTION                            
                                                                               
                              DFTD3 V3.1  Rev 1                                
                          USING Becke-Johnson damping                          
-------------------------------------------------------------------------------
[...]
 25:    437.39   0.001538    7.77  0.001097  (-0.023908 -0.018960  0.012900)
 26:    488.73   0.000884    4.47  0.000565  ( 0.005821  0.019361 -0.012490)
 27:    519.07   0.001929    9.75  0.001160  (-0.014134 -0.028766 -0.011512)
 28:    534.10   0.002925   14.78  0.001709  ( 0.015542  0.037681  0.006916)
 29:    574.92   0.020634  104.28  0.011200  (-0.061201 -0.062855 -0.059191)
 30:    590.36   0.006034   30.49  0.003190  (-0.006162 -0.049002  0.027396)
 31:    610.60   0.005397   27.27  0.002758  ( 0.032180 -0.041110  0.005721)
 32:    641.81   0.043464  219.65  0.021133  (-0.045830 -0.136552  0.019649)
 33:    720.35   0.000684    3.46  0.000296  ( 0.014886  0.000205  0.008650)
 34:    755.11   0.004013   20.28  0.001658  ( 0.022331  0.034021  0.001464)
 35:    789.47   0.014595   73.76  0.005769  (-0.034520  0.007510  0.067238)
 36:    821.08   0.004606   23.28  0.001751  ( 0.015336 -0.005193 -0.038580)
 37:    833.41   0.001310    6.62  0.000491  ( 0.009797  0.019070  0.005573)
 38:    875.04   0.004254   21.50  0.001517  ( 0.029693  0.018241 -0.017398)
 39:    886.22   0.012351   62.42  0.004349  ( 0.036523  0.003432 -0.054804)
 40:    907.51   0.005585   28.23  0.001921  (-0.018504 -0.007378  0.039036)
 41:    928.16   0.016008   80.90  0.005382  (-0.024957 -0.009891  0.068275)
 42:    940.69   0.003567   18.03  0.001183  (-0.007699 -0.007945 -0.032572)
 43:    955.36   0.000495    2.50  0.000162  (-0.012602 -0.001440 -0.000973)
 44:    967.40   0.000419    2.12  0.000135  (-0.003691 -0.008344 -0.007215)
 45:   1003.60   0.000654    3.31  0.000204  (-0.003856 -0.008469 -0.010812)
 46:   1033.82   0.002986   15.09  0.000901  ( 0.013636 -0.024714  0.010227)
 47:   1047.15   0.010332   52.22  0.003079  ( 0.052792  0.016075  0.005805)
 48:   1066.77   0.004809   24.30  0.001407  (-0.003208  0.034869  0.013436)
 49:   1074.12   0.002331   11.78  0.000677  (-0.013488 -0.014443  0.016930)
 50:   1082.52   0.014068   71.10  0.004056  (-0.026663  0.057755 -0.003000)
 51:   1180.10   0.001751    8.85  0.000463  ( 0.011179 -0.016792  0.007494)
 52:   1186.50   0.002195   11.09  0.000577  (-0.023154  0.005092  0.003917)
 53:   1201.37   0.004008   20.26  0.001041  (-0.026994 -0.016090  0.007320)
 54:   1230.12   0.001092    5.52  0.000277  ( 0.007531 -0.001076 -0.014804)
 55:   1239.52   0.009523   48.12  0.002397  ( 0.029408  0.028280 -0.027072)
 56:   1251.76   0.002053   10.37  0.000512  (-0.001808 -0.006390 -0.021626)
 57:   1284.53   0.005991   30.27  0.001455  (-0.017747  0.031174  0.012985)
 58:   1298.33   0.020193  102.05  0.004854  (-0.005862 -0.060612 -0.033843)
 59:   1316.40   0.000352    1.78  0.000083  ( 0.008773 -0.002056 -0.001487)
 60:   1335.25   0.000247    1.25  0.000058  (-0.007088  0.000628  0.002685)
 61:   1341.51   0.004656   23.53  0.001083  (-0.007655 -0.028442 -0.014680)
 62:   1356.31   0.003317   16.76  0.000763  (-0.011180  0.009578  0.023375)
 63:   1375.42   0.002997   15.15  0.000680  (-0.012245  0.020451  0.010579)
 64:   1400.68   0.001377    6.96  0.000307  ( 0.013908 -0.009638  0.004522)
 65:   1422.36   0.002629   13.29  0.000577  ( 0.008774  0.022033 -0.003801)
 66:   1441.69   0.008612   43.52  0.001864  (-0.031148  0.029868  0.001341)
 67:   1456.46   0.001056    5.33  0.000226  ( 0.002939 -0.011589 -0.009124)
 68:   1470.51   0.004564   23.06  0.000968  ( 0.023888  0.000065 -0.019946)
 69:   1481.60   0.005568   28.14  0.001173  (-0.002580  0.034039 -0.002713)
 70:   1487.91   0.000896    4.53  0.000188  (-0.010341  0.008985  0.000531)
 71:   1496.40   0.001445    7.30  0.000301  ( 0.016083 -0.001183  0.006417)
 72:   1499.12   0.000834    4.21  0.000174  (-0.006567  0.011183  0.002325)
 73:   1510.08   0.002569   12.98  0.000531  ( 0.008305 -0.007199 -0.020250)
 74:   1517.59   0.001240    6.27  0.000255  (-0.012253  0.010109  0.001610)
 75:   1530.04   0.004510   22.79  0.000920  ( 0.013130  0.021793  0.016509)
 76:   1540.27   0.037606  190.04  0.007619  (-0.040609 -0.076700  0.009327)
 77:   1690.08   0.029556  149.36  0.005457  (-0.015002  0.072248  0.003530)
 78:   1723.60   0.059666  301.53  0.010803  (-0.100717  0.021784  0.013578)
 79:   2986.35   0.014968   75.64  0.001564  (-0.026763 -0.019631 -0.021506)
 80:   2989.65   0.002123   10.73  0.000222  ( 0.008738  0.008401 -0.008644)
 81:   3001.91   0.004551   23.00  0.000473  ( 0.006093 -0.016815  0.012377)
 82:   3009.72   0.014247   72.00  0.001477  ( 0.026805  0.024742 -0.012103)
 83:   3024.40   0.002376   12.01  0.000245  (-0.005619  0.014248 -0.003250)
 84:   3032.86   0.003278   16.57  0.000337  (-0.011714 -0.005668 -0.012960)
 85:   3040.60   0.010615   53.64  0.001089  (-0.017537 -0.027879 -0.002160)
 86:   3061.48   0.002900   14.65  0.000296  ( 0.000144 -0.007935 -0.015251)
 87:   3073.96   0.008540   43.16  0.000867  ( 0.001592  0.014444  0.025608)
 88:   3090.96   0.003010   15.21  0.000304  (-0.005010  0.016697 -0.000040)
 89:   3098.88   0.003434   17.36  0.000346  (-0.008396  0.012533 -0.010876)
 90:   3109.84   0.118837  600.55  0.011925  ( 0.038025  0.099682 -0.023292)
 91:   3116.28   0.017227   87.06  0.001725  (-0.024343 -0.031172  0.012684)
 92:   3124.80   0.001652    8.35  0.000165  (-0.010580  0.007255 -0.000607)
 93:   3480.05   0.059121  298.77  0.005301  ( 0.034156  0.043092  0.047728)
 94:   3501.69   0.010801   54.58  0.000963  (-0.030186  0.002864 -0.006572)
 95:   3587.26   0.034223  172.95  0.002977  (-0.019632 -0.025309  0.044172)

* The epsilon (eps) is given for a Dirac delta lineshape.
** The dipole moment derivative (T) already includes vibrational overlap.

The first frequency considered to be a vibration is 6
The total number of vibrations considered is 90


--------------------------
THERMOCHEMISTRY AT 298.15K
--------------------------

Temperature         ...   298.15 K
Pressure            ...     1.00 atm
Total Mass          ...   219.24 AMU
Quasi RRHO          ...     True
Cut-Off Frequency   ...     1.00 cm^-1

Throughout the following assumptions are being made:
  (1) The electronic state is orbitally nondegenerate
  (2) There are no thermally accessible electronically excited states
  (3) Hindered rotations indicated by low frequency modes are not
      treated as such but are treated as vibrations and this may
      cause some error
  (4) All equations used are the standard statistical mechanics
      equations for an ideal gas
  (5) All vibrations are strictly harmonic

freq.      81.62  E(vib)   ...       0.48 
freq.      94.07  E(vib)   ...       0.47 
freq.     112.28  E(vib)   ...       0.45 
freq.     126.05  E(vib)   ...       0.43 
freq.     134.66  E(vib)   ...       0.42 
freq.     155.58  E(vib)   ...       0.40 
freq.     192.42  E(vib)   ...       0.36 
freq.     205.29  E(vib)   ...       0.35 
freq.     214.32  E(vib)   ...       0.34 
freq.     227.98  E(vib)   ...       0.33 
freq.     244.17  E(vib)   ...       0.31 
freq.     260.05  E(vib)   ...       0.30 
freq.     284.79  E(vib)   ...       0.28 
freq.     311.33  E(vib)   ...       0.25 
freq.     316.29  E(vib)   ...       0.25 
freq.     344.13  E(vib)   ...       0.23 
freq.     376.63  E(vib)   ...       0.21 
freq.     389.53  E(vib)   ...       0.20 
freq.     424.96  E(vib)   ...       0.18 
freq.     437.39  E(vib)   ...       0.17 
freq.     488.73  E(vib)   ...       0.15 
freq.     519.07  E(vib)   ...       0.13 
freq.     534.10  E(vib)   ...       0.13 
freq.     574.92  E(vib)   ...       0.11 
freq.     590.36  E(vib)   ...       0.10 
freq.     610.60  E(vib)   ...       0.10 
freq.     641.81  E(vib)   ...       0.09 
freq.     720.35  E(vib)   ...       0.07 
freq.     755.11  E(vib)   ...       0.06 
freq.     789.47  E(vib)   ...       0.05 
freq.     821.08  E(vib)   ...       0.05 
freq.     833.41  E(vib)   ...       0.04 
freq.     875.04  E(vib)   ...       0.04 
freq.     886.22  E(vib)   ...       0.04 
freq.     907.51  E(vib)   ...       0.03 
freq.     928.16  E(vib)   ...       0.03 
freq.     940.69  E(vib)   ...       0.03 
freq.     955.36  E(vib)   ...       0.03 
freq.     967.40  E(vib)   ...       0.03 
freq.    1003.60  E(vib)   ...       0.02 
freq.    1033.82  E(vib)   ...       0.02 
freq.    1047.15  E(vib)   ...       0.02 
freq.    1066.77  E(vib)   ...       0.02 
freq.    1074.12  E(vib)   ...       0.02 
freq.    1082.52  E(vib)   ...       0.02 
freq.    1180.10  E(vib)   ...       0.01 
freq.    1186.50  E(vib)   ...       0.01 
freq.    1201.37  E(vib)   ...       0.01 
freq.    1230.12  E(vib)   ...       0.01 
freq.    1239.52  E(vib)   ...       0.01 
freq.    1251.76  E(vib)   ...       0.01 
freq.    1284.53  E(vib)   ...       0.01 
freq.    1298.33  E(vib)   ...       0.01 
freq.    1316.40  E(vib)   ...       0.01 
freq.    1335.25  E(vib)   ...       0.01 
freq.    1341.51  E(vib)   ...       0.01 
freq.    1356.31  E(vib)   ...       0.01 
freq.    1375.42  E(vib)   ...       0.01 
freq.    1400.68  E(vib)   ...       0.00 
freq.    1422.36  E(vib)   ...       0.00 
freq.    1441.69  E(vib)   ...       0.00 
freq.    1456.46  E(vib)   ...       0.00 
freq.    1470.51  E(vib)   ...       0.00 
freq.    1481.60  E(vib)   ...       0.00 
freq.    1487.91  E(vib)   ...       0.00 
freq.    1496.40  E(vib)   ...       0.00 
freq.    1499.12  E(vib)   ...       0.00 
freq.    1510.08  E(vib)   ...       0.00 
freq.    1517.59  E(vib)   ...       0.00 
freq.    1530.04  E(vib)   ...       0.00 
freq.    1540.27  E(vib)   ...       0.00 
freq.    1690.08  E(vib)   ...       0.00 
freq.    1723.60  E(vib)   ...       0.00 
freq.    2986.35  E(vib)   ...       0.00 
freq.    2989.65  E(vib)   ...       0.00 
freq.    3001.91  E(vib)   ...       0.00 
freq.    3009.72  E(vib)   ...       0.00 
freq.    3024.40  E(vib)   ...       0.00 
freq.    3032.86  E(vib)   ...       0.00 
freq.    3040.60  E(vib)   ...       0.00 
freq.    3061.48  E(vib)   ...       0.00 
freq.    3073.96  E(vib)   ...       0.00 
freq.    3090.96  E(vib)   ...       0.00 
freq.    3098.88  E(vib)   ...       0.00 
freq.    3109.84  E(vib)   ...       0.00 
freq.    3116.28  E(vib)   ...       0.00 
freq.    3124.80  E(vib)   ...       0.00 
freq.    3480.05  E(vib)   ...       0.00 
freq.    3501.69  E(vib)   ...       0.00 
freq.    3587.26  E(vib)   ...       0.00 

------------
INNER ENERGY
------------

The inner energy is: U= E(el) + E(ZPE) + E(vib) + E(rot) + E(trans)
    E(el)   - is the total energy from the electronic structure calculation
              = E(kin-el) + E(nuc-el) + E(el-el) + E(nuc-nuc)
    E(ZPE)  - the the zero temperature vibrational energy from the frequency calculation
    E(vib)  - the the finite temperature correction to E(ZPE) due to population
              of excited vibrational states
    E(rot)  - is the rotational thermal energy
    E(trans)- is the translational thermal energy

Summary of contributions to the inner energy U:
Electronic energy                ...   -783.77365304 Eh
Zero point energy                ...      0.26922731 Eh     168.94 kcal/mol
Thermal vibrational correction   ...      0.01266067 Eh       7.94 kcal/mol
Thermal rotational correction    ...      0.00141627 Eh       0.89 kcal/mol
Thermal translational correction ...      0.00141627 Eh       0.89 kcal/mol
-----------------------------------------------------------------------
Total thermal energy                   -783.48893252 Eh


Summary of corrections to the electronic energy:
(perhaps to be used in another calculation)
Total thermal correction                  0.01549322 Eh       9.72 kcal/mol
Non-thermal (ZPE) correction              0.26922731 Eh     168.94 kcal/mol
-----------------------------------------------------------------------
Total correction                          0.28472052 Eh     178.66 kcal/mol


--------
ENTHALPY
--------

The enthalpy is H = U + kB*T
                kB is Boltzmann's constant
Total thermal energy              ...   -783.48893252 Eh 
Thermal Enthalpy correction       ...      0.00094421 Eh       0.59 kcal/mol
-----------------------------------------------------------------------
Total Enthalpy                    ...   -783.48798831 Eh


Note: Only C1 symmetry has been detected, increase convergence thresholds 
      if your molecule has a higher symmetry. Symmetry factor of 1.0 is   
      used for the rotational entropy correction. 
 

Note: Rotational entropy computed according to Herzberg 
Infrared and Raman Spectra, Chapter V,1, Van Nostrand Reinhold, 1945 
Point Group:  C1, Symmetry Number:   1  
Rotational constants in cm-1:     0.032483     0.016029     0.015079 

Vibrational entropy computed according to the QRRHO of S. Grimme
Chem.Eur.J. 2012 18 9955 using a reference frequency of 100.0 cm-1


-------
ENTROPY
-------

The entropy contributions are T*S = T*(S(el)+S(vib)+S(rot)+S(trans))
     S(el)   - electronic entropy
     S(vib)  - vibrational entropy
     S(rot)  - rotational entropy
     S(trans)- translational entropy
The entropies will be listed as multiplied by the temperature to get
units of energy

Electronic entropy                ...      0.00000000 Eh      0.00 kcal/mol
Vibrational entropy               ...      0.02155228 Eh     13.52 kcal/mol
Rotational entropy                ...      0.01506017 Eh      9.45 kcal/mol
Translational entropy             ...      0.01998299 Eh     12.54 kcal/mol
-----------------------------------------------------------------------
Final entropy term                ...      0.05659544 Eh     35.51 kcal/mol

In case the symmetry of your molecule has not been determined correctly
or in case you have a reason to use a different symmetry number we print 
out the resulting rotational entropy values for sn=1,12:

 non-linear molecules -----------------------------------
|  sn= 1 | S(rot)=       0.01506017 Eh      9.45 kcal/mol|
|  sn= 2 | S(rot)=       0.01440572 Eh      9.04 kcal/mol|
|  sn= 3 | S(rot)=       0.01402289 Eh      8.80 kcal/mol|
|  sn= 4 | S(rot)=       0.01375126 Eh      8.63 kcal/mol|
|  sn= 5 | S(rot)=       0.01354057 Eh      8.50 kcal/mol|
|  sn= 6 | S(rot)=       0.01336843 Eh      8.39 kcal/mol|
|  sn= 7 | S(rot)=       0.01322288 Eh      8.30 kcal/mol|
|  sn= 8 | S(rot)=       0.01309680 Eh      8.22 kcal/mol|
|  sn= 9 | S(rot)=       0.01298560 Eh      8.15 kcal/mol|
|  sn=10 | S(rot)=       0.01288612 Eh      8.09 kcal/mol|
|  sn=11 | S(rot)=       0.01279613 Eh      8.03 kcal/mol|
|  sn=12 | S(rot)=       0.01271397 Eh      7.98 kcal/mol|
 linear molecules ---------------------------------------
|  Dinfh | S(rot)=       0.00928612 Eh      5.83 kcal/mol|
|  Cinfv | S(rot)=       0.00994058 Eh      6.24 kcal/mol|
 --------------------------------------------------------


-------------------
GIBBS FREE ENERGY
-------------------

The Gibbs free energy is G = H - T*S

Total enthalpy                    ...   -783.48798831 Eh 
Total entropy correction          ...     -0.05659544 Eh    -35.51 kcal/mol
-----------------------------------------------------------------------
Final Gibbs free energy         ...   -783.54458375 Eh

For completeness - the Gibbs free energy minus the electronic energy
G-E(el)                           ...      0.22906929 Eh    143.74 kcal/mol


Maximum memory used throughout the entire PROP-calculation: 100.9 MB

--------------------------------
SUGGESTED CITATIONS FOR THIS RUN
--------------------------------

Below you find a list of papers that are relevant to this ORCA run
We neither can nor want to force you to cite these papers, but we appreciate if you do
You receive ORCA, which is the product of decades of hard work by many enthusiastic individuals, for free
The only thing we kindly ask in return is that you cite our papers,
We deeply appreciate it, if you show your appreciation for ORCA by not just citing the generic ORCA reference.

Please note that relegating all ORCA citations to the supporting information does *not* help us.
SI sections are not indexed - citations you put there will not count into any citation statistics
But we need these citations in order to attract the funding resources that allow us to do what we are doing

Therefore, if you are a happy ORCA user, please consider citing a few of the papers listed below in the main body of your paper

In addition to the list printed below, the program has created the file m1_00_Vitamin_B5-GFN2_0000-B97-3C-TZ.bibtex that contains the list in bibtex format
You can import this file easily into all common literature databanks and citation aid programs


List of essential papers. We consider these as the minimum necessary citations

  1. Neese,F.
     Software update: the ORCA program system, version 5.0
     WIRES Comput. Molec. Sci., 2022 12(1)e1606
     doi.org/10.1002/wcms.1606

List of papers to cite with high priority. The work reported in these papers was absolutely
necessary for this run to complete.
Our perspective: the developers of density functionals and basis sets usually get cited in chemistry papers
Good! But without the algorithms to do something with them, the functionals or basis sets would not do anything.
Hence, in our opinion, the algorithm design and method developments papers are equally worthy of getting cited

  1. Neese,F.
     An improvement of the resolution of the identity approximation for the formation of the Coulomb matrix
     J. Comp. Chem., 2003 24(14)1740-1747
     doi.org/10.1002/jcc.10318
  2. Bykov,D.; Petrenko,T.; Izsak,R.; Kossmann,S.; Becker,U.; Valeev,E.; Neese,F.
     Efficient implementation of the analytic second derivatives of Hartree-Fock and hybrid DFT energies: a detailed analysis of different approximations
     Molec. Phys., 2015 113 1961-1977
     doi.org/10.1080/00268976.2015.1025114
  3. Neese,F.
     The SHARK Integral Generation and Digestion System
     J. Comp. Chem., 2022  1-16
     doi.org/10.1002/jcc.26942
  4. Grimme,S.; Antony,J.; Ehrlich,S.; Krieg,H.
     A consistent and accurate ab initio parametrization of density functional dispersion correction (DFT-D) for the 94 elements H-Pu
     J. Chem. Phys., 2010 132 154104
     doi.org/10.1063/1.3382344
  5. Grimme,S.; Ehrlich,S.; Goerigk,L.
     Effect of the damping function in dispersion corrected density functional theory
     J. Comput. Chem., 2011 32(7)1456-1465
     doi.org/10.1002/jcc.21759

List of suggested additional citations. These are papers that are important in the 'surrounding' of 
of this run, or papers that preceded the highly important papers. If you like your results we are grateful for a citation.

  1. Neese,F.
     The ORCA program system
     WIRES Comput. Molec. Sci., 2012 2(1)73-78
     doi.org/10.1002/wcms.81
  2. Neese,F.
     Software update: the ORCA program system, version 4.0
     WIRES Comput. Molec. Sci., 2018 8(1)1-6
     doi.org/10.1002/wcms.1327
  3. Neese,F.; Wennmohs,F.; Becker,U.; Riplinger,C.
     The ORCA quantum chemistry program package
     J. Chem. Phys., 2020 152 Art. No. L224108
     doi.org/10.1063/5.0004608

List of optional additional citations

  1. Neese,F.
     Approximate second-order SCF convergence for spin unrestricted wavefunctions
     Chem. Phys. Lett., 2000 325(1-3)93-98
     doi.org/10.1016/s0009-2614(00)00662-x

Timings for individual modules:

Sum of individual times          ...      385.529 sec (=   6.425 min)
Startup calculation              ...       41.506 sec (=   0.692 min)  10.8 %
SCF iterations                   ...       90.901 sec (=   1.515 min)  23.6 %
Property integrals               ...       89.085 sec (=   1.485 min)  23.1 %
SCF Response                     ...       69.178 sec (=   1.153 min)  17.9 %
Property calculations            ...       34.030 sec (=   0.567 min)   8.8 %
SCF Gradient evaluation          ...       60.728 sec (=   1.012 min)  15.8 %
Geometry relaxation              ...        0.100 sec (=   0.002 min)   0.0 %
                             ****ORCA TERMINATED NORMALLY****
TOTAL RUN TIME: 0 days 0 hours 6 minutes 28 seconds 386 msec
