
                                 *****************
                                 * O   R   C   A *
                                 *****************

                                            #,                                       
                                            ###                                      
                                            ####                                     
                                            #####                                    
                                            ######                                   
                                           ########,                                 
                                     ,,################,,,,,                         
                               ,,#################################,,                 
                          ,,##########################################,,             
                       ,#########################################, ''#####,          
                    ,#############################################,,   '####,        
                  ,##################################################,,,,####,       
                ,###########''''           ''''###############################       
              ,#####''   ,,,,##########,,,,          '''####'''          '####       
            ,##' ,,,,###########################,,,                        '##       
           ' ,,###''''                  '''############,,,                           
         ,,##''                                '''############,,,,        ,,,,,,###''
      ,#''                                            '''#######################'''  
     '                                                          ''''####''''         
             ,#######,   #######,   ,#######,      ##                                
            ,#'     '#,  ##    ##  ,#'     '#,    #''#        ,####,   ,####,        
            ##       ##  ##   ,#'  ##            #'  '#       #'       #'  '#        
            ##       ##  #######   ##           ,######,      #####,   #    #        
            '#,     ,#'  ##    ##  '#,     ,#' ,#      #,     #,   #   #,  ,#        
             '#######'   ##     ##  '#######'  #'      '#     '####' # '####'        



                #########################################################
                #                        -***-                          #
                #          Department of theory and spectroscopy        #
                #                                                       #
                #                      Frank Neese                      #
                #                                                       #
                #     Directorship, Architecture, Infrastructure        #
                #                    SHARK, DRIVERS                     #
                #        Core code/Algorithms in most modules           #
                #                                                       #
                #        Max Planck Institute fuer Kohlenforschung      #
                #                Kaiser Wilhelm Platz 1                 #
                #                 D-45470 Muelheim/Ruhr                 #
                #                      Germany                          #
                #                                                       #
                #                  All rights reserved                  #
                #                        -***-                          #
                #########################################################


                         Program Version 6.0.1  -  RELEASE   -


 With contributions from (in alphabetic order):
[Max-Planck-Institut fuer Kohlenforschung]                               
  Daniel Aravena         : Magnetic Suceptibility                        
  Michael Atanasov       : Ab Initio Ligand Field Theory (pilot matlab implementation)
  Alexander A. Auer      : GIAO ZORA, VPT2 properties, NMR spectrum      
  Ute Becker             : All parallelization in ORCA, NUMFREQ, NUMCALC 
  Giovanni Bistoni       : ED, misc. LED, open-shell LED, HFLD           
  Martin Brehm           : Molecular dynamics                            
  Dmytro Bykov           : pre 5.0 version of the SCF Hessian            
  Marcos Casanova-Páez   : Triplet and SCS-CIS(D). UHF-(DLPNO)-IP/EA/STEOM-CCSD. UHF-CVS-IP/STEOM-CCSD   
  Vijay G. Chilkuri      : MRCI spin determinant printing, contributions to CSF-ICE 
  Pauline Colinet        : FMM embedding                                 
  Dipayan Datta          : RHF DLPNO-CCSD density                        
  Achintya Kumar Dutta   : EOM-CC, STEOM-CC                              
  Nicolas Foglia         : Exact transition moments, OPA infrastructure, MCD improvements    
  Dmitry Ganyushin       : Spin-Orbit,Spin-Spin,Magnetic field MRCI      
  Miquel Garcia-Rates    : C-PCM and meta-GGA Hessian, CCSD/C-PCM, Gaussian charge scheme 
  Tiago L. C. Gouveia    : GS-ROHF, GS-ROCIS                             
  Yang Guo               : DLPNO-NEVPT2, F12-NEVPT2, CIM, IAO-localization        
  Andreas Hansen         : Spin unrestricted coupled pair/coupled cluster methods 
  Ingolf Harden          : AUTO-CI MPn and infrastructure                
  Benjamin Helmich-Paris : MC-RPA, TRAH-(SCF,CASSCF), AVAS, COSX integrals, SCF dyn. polar. 
  Lee Huntington         : MR-EOM, pCC                                   
  Robert Izsak           : Overlap fitted RIJCOSX, COSX-SCS-MP3, EOM     
  Riya Kayal             : Wick's Theorem for AUTO-CI, AUTO-CI UHF-CCSDT 
  Emily Kempfer          : AUTO-CI, RHF CISDT and CCSDT                  
  Christian Kollmar      : KDIIS, OOCD, Brueckner-CCSD(T), CCSD density, CASPT2, CASPT2-K, improved NEVPT2 
  Axel Koslowski         : Symmetry handling                             
  Simone Kossmann        : meta-GGA functionals, TD-DFT gradient, OOMP2, (MP2 Hessian; deprecated post 5.0) 
  Lucas Lang             : DCDCAS                                        
  Marvin Lechner         : AUTO-CI (C++ implementation), FIC-MRCC        
  Spencer Leger          : CASSCF response                               
  Dagmar Lenk            : GEPOL surface, SMD, ORCA-2-JSON               
  Dimitrios Liakos       : Extrapolation schemes; Compound Job, initial MDCI parallelization 
  Dimitrios Manganas     : Further ROCIS development; embedding schemes. LFT, Crystal Embedding 
  Dimitrios Pantazis     : SARC Basis sets                               
  Anastasios Papadopoulos: AUTO-CI, single reference methods and gradients 
  Taras Petrenko         : pre 6.0 DFT Hessian and TD-DFT gradient, (ASA, deprecated), ECA, 1-Electron XAS/XES, NRVS 
  Peter Pinski           : DLPNO-MP2, DLPNO-MP2 Gradient                 
  Christoph Reimann      : Effective Core Potentials                     
  Marius Retegan         : Local ZFS, SOC                                
  Christoph Riplinger    : Optimizer, TS searches, QM/MM, DLPNO-CCSD(T), (RO)-DLPNO pert. Triples 
  Michael Roemelt        : Original ROCIS implementation                 
  Masaaki Saitow         : Open-shell DLPNO-CCSD energy and density      
  Barbara Sandhoefer     : DKH picture change effects                    
  Kantharuban Sivalingam : CASSCF convergence/infrastructure, NEVPT2 and variants, FIC-MRCI 
  Bernardo de Souza      : ESD, SOC TD-DFT                               
  Georgi L. Stoychev     : AutoAux, RI-MP2 NMR, DLPNO-MP2 response, X2C  
  Van Anh Tran           : RI-MP2 g-tensors                              
  Willem Van den Heuvel  : Paramagnetic NMR                              
  Zikuan Wang            : NOTCH, Electric field optimization            
  Frank Wennmohs         : Technical directorship and infrastructure     
  Hang Xu                : AUTO-CI-Response properties                   
                                                                         
[FACCTs GmbH]                                                            
  Markus Bursch, Miquel Garcia-Rates, Christoph Riplinger, Bernardo de Souza, Georgi L. Stoychev 
                                                                 
  APM, Basis sets (HGBS, AHGBS, def-TZVP (Ac-Lr), def2-XVPD (La-Lu)), CI-OPT, improved COSX, DLPNO-Multilevel,           
  DOCKER, DRACO, updates on ESD, GOAT, IRC, LR-CPCM, MBIS, meta-GGA TD-DFT gradient, ML-optimized integration grids, 
  MM, NACMEs, nearIR, NEB, NEB-TS, NL-DFT gradient (VV10), 2- and 3-layer-ONIOM, interface openCOSMO-RS, QMMM,   
  Crystal-QMMM, SF, symmetry and pop. for TD-DFT, r2SCAN hybrids, SOLVATOR                                   
                                                                         
[Other institutions]                                                     
  V. Asgeirsson          : NEB                                           
  Christoph Bannwarth    : sTDA-DFT, sTD-DFT, PBEh-3c, B97-3c, D3        
  Sebastian Ehlert       : rSCAN, r2SCAN, r2SCAN-3c, D4, dhf basis sets  
  Marvin Friede          : D4 for Fr, Ra, Ac-Lr                          
  Lars Goerigk           : TD-DFT with DH, B97 family of functionals     
  Stefan Grimme          : VdW corrections, initial TS optimization, DFT functionals, gCP, sTDA/sTD-DF 
  Waldemar Hujo          : DFT-NL                                        
  H. Jonsson             : NEB                                           
  Holger Kruse           : gCP                                           
  Marcel Mueller         : wB97X-3c, vDZP basis set                      
  Hagen Neugebauer       : wr2SCAN                                       
  Tobias Risthaus        : range-separated hybrid DFT                    
  Lukas Wittmann         : regularized MP2, r2SCAN double-hybrids, wr2SCAN        
                                                                         
We gratefully acknowledge several colleagues who have allowed us to      
interface, adapt or use parts of their codes:                            
  Ed Valeev, F. Pavosevic, A. Kumar             : LibInt (2-el integral package), F12 methods 
  Garnet Chan, S. Sharma, J. Yang, R. Olivares  : DMRG                   
  Ulf Ekstrom                                   : XCFun DFT Library      
  Mihaly Kallay                                 : mrcc  (arbitrary order and MRCC methods)
  Frank Weinhold                                : gennbo (NPA and NBO analysis)           
  Simon Mueller                                 : openCOSMO-RS                            
  Christopher J. Cramer and Donald G. Truhlar   : smd solvation model                     
  S Lehtola, MJT Oliveira, MAL Marques          : LibXC Library                           
  Liviu Ungur et al                             : ANISO software                          


 Your calculation uses the libint2 library for the computation of 2-el integrals
 For citations please refer to: http://libint.valeyev.net

 Your ORCA version has been built with support for libXC version: 6.2.2
 For citations please refer to: https://libxc.gitlab.io

 This ORCA versions uses:
   CBLAS   interface :  Fast vector & matrix operations
   LAPACKE interface :  Fast linear algebra routines
   SCALAPACK package :  Parallel linear algebra routines
   Shared memory     :  Shared parallel matrices
   BLAS/LAPACK       :  OpenBLAS 0.3.27  USE64BITINT DYNAMIC_ARCH NO_AFFINITY Zen SINGLE_THREADED
        Core in use  :  Zen
   Copyright (c) 2011-2014, The OpenBLAS Project


NOTE: MaxCore=6000 MB was set to SCF,MP2,MDCI,CIPSI,MRCI and CIS
      => If you want to overwrite this, your respective input block should be placed after the MaxCore statement
Your calculation utilizes the atom-pairwise dispersion correction
with the Becke-Johnson damping scheme (D3BJ)


Your calculation employs the composite approach B97-3c by Grimme and coworkers.
For the correct reference, please check the publication list of the Grimme group:
http://www.thch.uni-bonn.de/tc/index.php?section=publikationen&subsection=grimme#2017
   

XCFun DFT library Copyright 2009-2010 Ulf Ekstrom and contributors.
See http://admol.org/xcfun for more information.
This is free software; see the source code for copying conditions.
There is ABSOLUTELY NO WARRANTY; not even for MERCHANTABILITY or FITNESS FOR A PARTICULAR PURPOSE.
For details see the documentation.
Scientific users of this library should cite U. Ekstrom, L. Visscher, R. Bast, A. J. Thorvaldsen and K. Ruud;
J.Chem.Theor.Comp. 2010, DOI: 10.1021/ct100117s
XCFun Version 0.99 

================================================================================

----- Orbital basis set information -----
Your calculation utilizes the basis: def2-mTZVP
----- AuxJ basis set information -----
Your calculation utilizes the basis: def2-mTZVP/J
================================================================================
                                        WARNINGS
                       Please study these warnings very carefully!
================================================================================


WARNING: Geometry Optimization
  ===> : Switching off AutoStart
         For restart on a previous wavefunction, please use MOREAD

================================================================================
                                       INPUT FILE
================================================================================
NAME = m1_00_Vitamin_B5-GFN2_0001-B97-3C-TZ.inp
|  1> %pal nprocs 16 end
|  2> %MaxCore 6000
|  3> # put your comments here
|  4> ! B97-3C  OPT  FREQ DEFGRID3 NOTRAH
|  5> %scf MaxIter 800 end
|  6> %output
|  7> Print [P_Hirshfeld] 1
|  8> end
|  9> %geom
| 10> MaxIter 3000
| 11>  TolE 1e-6 #TolE 5e-6 Energy change (a.u.)
| 12>  TolRMSG 3e-5 #TolRMSG 1e-4 RMS gradient (a.u.)
| 13>  TolMaxG 1e-4 #TolMaxG 3e-3 Max. element of gradient (a.u.)
| 14>  TolRMSD 2e-3 #TolRMSD 2e-3 RMS displacement (a.u.)
| 15>  TolMaxD 4e-3 #TolMaxD 4e-3 Max. displacement (a.u.)
| 16> end
| 17> * xyz 0 1
| 18>  O -0.18411732746085 -0.31233486685139 -6.13964686716768
| 19>  O -1.18624686215547 -2.64078688061681 -5.18640127326377
| 20>  O -1.81368551056774 0.32940651187479 -3.04773462968433
| 21>  O -4.76055302888098 -0.47733197278689 -2.82871757507115
| 22>  O -3.70536351620870 -1.86282668548909 -4.21903805644171
| 23>  N -2.23798737267738 0.89302757864891 -5.18761648596606
| 24>  C 0.48875458276183 -1.30226849484450 -3.99680330773011
| 25>  C -0.09758621347390 -0.08390134701288 -4.75081195661132
| 26>  C -0.57202037547448 -2.41868977132467 -3.92510274564286
| 27>  C 0.89844363214382 -0.89991128479279 -2.58022806902912
| 28>  C 1.71779723788143 -1.81236918308199 -4.75662573893286
| 29>  C -1.46535013473231 0.37435598946363 -4.21287560931022
| 30>  C -3.58194797682587 1.34324225437184 -4.95283757330786
| 31>  C -4.60761087274522 0.19741112230722 -5.07657877206881
| 32>  C -4.30196471834654 -0.83284127101726 -4.01893159388812
| 33>  H 0.58256563693831 0.76996950991144 -4.62194536687903
| 34>  H -1.32347662845739 -2.14874205612307 -3.18102571237039
| 35>  H -0.08979081431454 -3.35106641732281 -3.60436107127720
| 36>  H 1.71732014743997 -0.18500922094633 -2.61521553718521
| 37>  H 1.22779794472715 -1.77611628817962 -2.02623799459441
| 38>  H 0.06209345726823 -0.44758278200524 -2.05633966084393
| 39>  H 2.21963639687381 -2.57692825892789 -4.16849576754129
| 40>  H 2.41522984305933 -0.99857021924957 -4.94104555618237
| 41>  H 1.43169726963331 -2.24552726425418 -5.71106835919419
| 42>  H -1.88776404031979 0.79361299442991 -6.13247921909684
| 43>  H -0.53175774204607 -1.22120772533824 -6.22381659653296
| 44>  H -3.62280742435613 1.74517590331804 -3.93627671081110
| 45>  H -3.82494356470419 2.13007814586581 -5.66921929527785
| 46>  H -2.14277087432997 -2.56238590398068 -5.06479667044591
| 47>  H -4.53949778875737 -0.26407344036365 -6.06201709369876
| 48>  H -5.60753997233159 0.59563797663309 -4.91180286808155
| 49>  H -4.44882838956076 -1.08138765231525 -2.13654826587106
| 50> *
| 51> 
| 52> 
| 53> 
| 54> 
| 55>                          ****END OF INPUT****
================================================================================

                       *****************************
                       * Geometry Optimization Run *
                       *****************************

Geometry optimization settings:
Update method            Update   .... BFGS
Choice of coordinates    CoordSys .... (2022) Redundant Internals
Initial Hessian          InHess   .... Almloef's Model
Max. no of cycles        MaxIter  .... 3000

Convergence Tolerances:
Energy Change            TolE     ....  1.0000e-06 Eh
Max. Gradient            TolMAXG  ....  1.0000e-04 Eh/bohr
RMS Gradient             TolRMSG  ....  3.0000e-05 Eh/bohr
Max. Displacement        TolMAXD  ....  4.0000e-03 bohr
RMS Displacement         TolRMSD  ....  2.0000e-03 bohr
Strict Convergence                .... False

------------------------------------------------------------------------------
                        ORCA OPTIMIZATION COORDINATE SETUP
------------------------------------------------------------------------------

The optimization will be done in redundant internal coordinates (2022)
Making redundant internal coordinates   ...  (2022 redundants) done
Evaluating the initial hessian          ...  (Almloef) done
Evaluating the coordinates              ...  done
Calculating the B-matrix                .... done
Calculating the G-matrix                .... done
Diagonalizing the G-matrix              .... done
Small eigenvalue found = 8.177e-03
Small eigenvalue found = 1.384e-02
Small eigenvalue found = 1.986e-02
The first mode is                       ....   55
The number of degrees of freedom        ....   90

    -----------------------------------------------------------------
                    Redundant Internal Coordinates


    -----------------------------------------------------------------
         Definition                    Initial Value    Approx d2E/dq
    -----------------------------------------------------------------
      1. B(C   7,C   6)                  1.5481         0.349489   
      2. B(C   7,O   0)                  1.4102         0.519664   
      3. B(C   8,O   1)                  1.4204         0.500505   
      4. B(C   8,C   6)                  1.5417         0.357883   
      5. B(C   9,C   6)                  1.5285         0.375589   
      6. B(C  10,C   6)                  1.5323         0.370371   
      7. B(C  11,N   5)                  1.3476         0.653842   
      8. B(C  11,O   2)                  1.2169         1.056823   
      9. B(C  11,C   7)                  1.5395         0.360722   
     10. B(C  12,N   5)                  1.4367         0.471415   
     11. B(C  13,C  12)                  1.5428         0.356418   
     12. B(C  14,C  13)                  1.5078         0.405320   
     13. B(C  14,O   4)                  1.2070         1.096081   
     14. B(C  14,O   3)                  1.3241         0.712819   
     15. B(H  15,C   7)                  1.0992         0.348093   
     16. B(H  16,C   8)                  1.0914         0.358220   
     17. B(H  17,C   8)                  1.0976         0.350173   
     18. B(H  18,C   9)                  1.0876         0.363293   
     19. B(H  19,C   9)                  1.0877         0.363141   
     20. B(H  20,C   9)                  1.0856         0.365959   
     21. B(H  21,C  10)                  1.0873         0.363647   
     22. B(H  22,C  10)                  1.0875         0.363401   
     23. B(H  23,C  10)                  1.0865         0.364786   
     24. B(H  24,N   5)                  1.0126         0.428636   
     25. B(H  24,O   0)                  2.0312         0.010163   
     26. B(H  25,O   0)                  0.9767         0.488974   
     27. B(H  25,O   1)                  1.8761         0.017963   
     28. B(H  26,C  12)                  1.0939         0.354978   
     29. B(H  27,C  12)                  1.0915         0.358128   
     30. B(H  28,O   1)                  0.9674         0.506002   
     31. B(H  28,O   4)                  1.9096         0.015886   
     32. B(H  29,C  13)                  1.0903         0.359739   
     33. B(H  30,C  13)                  1.0888         0.361625   
     34. B(H  31,O   3)                  0.9701         0.500961   
     35. A(C   7,O   0,H  25)          104.9189         0.355375   
     36. A(C   8,O   1,H  28)          107.6547         0.355174   
     37. A(C  14,O   3,H  31)          111.2764         0.376701   
     38. A(C  12,N   5,H  24)          120.4516         0.341912   
     39. A(C  11,N   5,H  24)          116.0302         0.361349   
     40. A(C  11,N   5,C  12)          122.5978         0.411863   
     41. A(C   7,C   6,C   8)          109.3877         0.356632   
     42. A(C   7,C   6,C  10)          108.9202         0.358718   
     43. A(C   8,C   6,C   9)          109.3865         0.361031   
     44. A(C   7,C   6,C   9)          110.2258         0.359573   
     45. A(C   9,C   6,C  10)          109.4016         0.363151   
     46. A(C   8,C   6,C  10)          109.5038         0.360171   
     47. A(C  11,C   7,H  15)          106.1132         0.320676   
     48. A(C   6,C   7,C  11)          113.6130         0.357111   
     49. A(O   0,C   7,C  11)          109.7451         0.379885   
     50. A(O   0,C   7,H  15)          106.2162         0.338562   
     51. A(O   0,C   7,C   6)          112.0511         0.377810   
     52. A(C   6,C   7,H  15)          108.6557         0.319023   
     53. A(H  16,C   8,H  17)          108.2628         0.289329   
     54. A(O   1,C   8,H  17)          108.4607         0.336783   
     55. A(O   1,C   8,C   6)          111.6835         0.376907   
     56. A(C   6,C   8,H  16)          109.0465         0.321768   
     57. A(O   1,C   8,H  16)          110.2630         0.338061   
     58. A(C   6,C   8,H  17)          109.0527         0.320574   
     59. A(H  18,C   9,H  19)          108.5365         0.291628   
     60. A(C   6,C   9,H  19)          109.9454         0.325054   
     61. A(C   6,C   9,H  18)          110.1829         0.325077   
     62. A(H  19,C   9,H  20)          108.8523         0.291964   
     63. A(H  18,C   9,H  20)          108.7655         0.291983   
     64. A(C   6,C   9,H  20)          110.5130         0.325468   
     65. A(H  21,C  10,H  23)          108.4430         0.291881   
     66. A(C   6,C  10,H  23)          110.9226         0.324549   
     67. A(H  21,C  10,H  22)          108.7788         0.291706   
     68. A(C   6,C  10,H  22)          110.4478         0.324346   
     69. A(C   6,C  10,H  21)          109.6362         0.324382   
     70. A(H  22,C  10,H  23)          108.5565         0.291849   
     71. A(O   2,C  11,C   7)          125.3000         0.430584   
     72. A(O   2,C  11,N   5)          122.8625         0.476589   
     73. A(N   5,C  11,C   7)          111.7892         0.395407   
     74. A(N   5,C  12,C  13)          112.0896         0.372768   
     75. A(H  26,C  12,H  27)          109.6783         0.289936   
     76. A(C  13,C  12,H  27)          109.5573         0.321539   
     77. A(N   5,C  12,H  27)          109.0811         0.334694   
     78. A(C  13,C  12,H  26)          108.8199         0.321074   
     79. A(N   5,C  12,H  26)          107.5747         0.334203   
     80. A(H  29,C  13,H  30)          110.4234         0.290987   
     81. A(C  14,C  13,H  30)          109.2629         0.328932   
     82. A(C  12,C  13,H  30)          109.0717         0.322051   
     83. A(C  14,C  13,H  29)          109.3977         0.328649   
     84. A(C  12,C  13,H  29)          110.2016         0.321775   
     85. A(C  12,C  13,C  14)          108.4483         0.365505   
     86. A(O   4,C  14,C  13)          124.5398         0.442623   
     87. A(O   3,C  14,C  13)          112.1391         0.409809   
     88. A(O   3,C  14,O   4)          123.3205         0.487516   
     89. D(O   0,C   7,C   6,C   8)    -74.1796         0.009843   
     90. D(O   0,C   7,C   6,C   9)    165.5106         0.009843   
     91. D(C  11,C   7,C   6,C   9)    -69.3979         0.009843   
     92. D(C  11,C   7,O   0,H  25)    -83.9347         0.023238   
     93. D(C   6,C   7,O   0,H  25)     43.2625         0.023238   
     94. D(C  11,C   7,C   6,C   8)     50.9120         0.009843   
     95. D(C  11,C   7,C   6,C  10)    170.5673         0.009843   
     96. D(H  15,C   7,O   0,H  25)    161.7673         0.023238   
     97. D(O   0,C   7,C   6,C  10)     45.4758         0.009843   
     98. D(O   1,C   8,C   6,C   9)    167.9943         0.010284   
     99. D(O   1,C   8,C   6,C  10)    -72.1229         0.010284   
    100. D(O   1,C   8,C   6,C   7)     47.1726         0.010284   
    101. D(H  16,C   8,O   1,H  28)     -4.1889         0.021487   
    102. D(C   6,C   8,O   1,H  28)   -125.5979         0.021487   
    103. D(H  17,C   8,O   1,H  28)    114.1975         0.021487   
    104. D(H  16,C   8,C   6,C   7)    -74.9383         0.010284   
    105. D(H  16,C   8,C   6,C  10)    165.7663         0.010284   
    106. D(H  16,C   8,C   6,C   9)     45.8834         0.010284   
    107. D(H  19,C   9,C   6,C  10)    -65.2080         0.011257   
    108. D(H  19,C   9,C   6,C   8)     54.7377         0.011257   
    109. D(H  19,C   9,C   6,C   7)    175.0482         0.011257   
    110. D(H  18,C   9,C   6,C  10)     54.3770         0.011257   
    111. D(H  18,C   9,C   6,C   8)    174.3226         0.011257   
    112. D(H  18,C   9,C   6,C   7)    -65.3668         0.011257   
    113. D(H  22,C  10,C   6,C   9)    -68.2314         0.010964   
    114. D(H  22,C  10,C   6,C   8)    171.8950         0.010964   
    115. D(H  22,C  10,C   6,C   7)     52.3118         0.010964   
    116. D(H  21,C  10,C   6,C   9)     51.6236         0.010964   
    117. D(H  21,C  10,C   6,C   8)    -68.2500         0.010964   
    118. D(H  21,C  10,C   6,C   7)    172.1668         0.010964   
    119. D(O   2,C  11,N   5,C  12)     -4.9743         0.034925   
    120. D(N   5,C  11,C   7,O   0)    -21.9511         0.009781   
    121. D(O   2,C  11,C   7,H  15)    -85.1116         0.009781   
    122. D(O   2,C  11,C   7,C   6)     34.2076         0.009781   
    123. D(O   2,C  11,C   7,O   0)    160.5244         0.009781   
    124. D(C   7,C  11,N   5,H  24)      8.3804         0.034925   
    125. D(C   7,C  11,N   5,C  12)    177.4309         0.034925   
    126. D(N   5,C  11,C   7,C   6)   -148.2679         0.009781   
    127. D(O   2,C  11,N   5,H  24)   -174.0248         0.034925   
    128. D(H  27,C  12,N   5,C  11)    152.1084         0.018990   
    129. D(H  26,C  12,N   5,H  24)   -158.2135         0.018990   
    130. D(H  26,C  12,N   5,C  11)     33.2057         0.018990   
    131. D(C  13,C  12,N   5,H  24)     82.1998         0.018990   
    132. D(C  13,C  12,N   5,C  11)    -86.3809         0.018990   
    133. D(H  29,C  13,C  12,H  27)     63.8476         0.010206   
    134. D(H  29,C  13,C  12,H  26)   -176.2441         0.010206   
    135. D(H  29,C  13,C  12,N   5)    -57.3893         0.010206   
    136. D(C  14,C  13,C  12,H  27)   -176.4289         0.010206   
    137. D(C  14,C  13,C  12,H  26)    -56.5207         0.010206   
    138. D(C  14,C  13,C  12,N   5)     62.3342         0.010206   
    139. D(O   4,C  14,C  13,H  29)     19.9750         0.012178   
    140. D(O   4,C  14,C  13,C  12)   -100.2503         0.012178   
    141. D(O   3,C  14,C  13,H  30)    -39.3062         0.012178   
    142. D(O   3,C  14,C  13,H  29)   -160.3002         0.012178   
    143. D(O   3,C  14,C  13,C  12)     79.4745         0.012178   
    144. D(C  13,C  14,O   3,H  31)   -171.7968         0.038186   
    145. D(O   4,C  14,O   3,H  31)      7.9320         0.038186   
    -----------------------------------------------------------------

Number of atoms                         .... 32
Number of degrees of freedom            .... 145


         *************************************************************
         *                GEOMETRY OPTIMIZATION CYCLE   1            *
         *************************************************************
---------------------------------
CARTESIAN COORDINATES (ANGSTROEM)
---------------------------------
  O     -0.184117   -0.312335   -6.139647
  O     -1.186247   -2.640787   -5.186401
  O     -1.813686    0.329407   -3.047735
  O     -4.760553   -0.477332   -2.828718
  O     -3.705364   -1.862827   -4.219038
  N     -2.237987    0.893028   -5.187616
  C      0.488755   -1.302268   -3.996803
  C     -0.097586   -0.083901   -4.750812
  C     -0.572020   -2.418690   -3.925103
  C      0.898444   -0.899911   -2.580228
  C      1.717797   -1.812369   -4.756626
  C     -1.465350    0.374356   -4.212876
  C     -3.581948    1.343242   -4.952838
  C     -4.607611    0.197411   -5.076579
  C     -4.301965   -0.832841   -4.018932
  H      0.582566    0.769970   -4.621945
  H     -1.323477   -2.148742   -3.181026
  H     -0.089791   -3.351066   -3.604361
  H      1.717320   -0.185009   -2.615216
  H      1.227798   -1.776116   -2.026238
  H      0.062093   -0.447583   -2.056340
  H      2.219636   -2.576928   -4.168496
  H      2.415230   -0.998570   -4.941046
  H      1.431697   -2.245527   -5.711068
  H     -1.887764    0.793613   -6.132479
  H     -0.531758   -1.221208   -6.223817
  H     -3.622807    1.745176   -3.936277
  H     -3.824944    2.130078   -5.669219
  H     -2.142771   -2.562386   -5.064797
  H     -4.539498   -0.264073   -6.062017
  H     -5.607540    0.595638   -4.911803
  H     -4.448828   -1.081388   -2.136548

----------------------------
CARTESIAN COORDINATES (A.U.)
----------------------------
  NO LB      ZA    FRAG     MASS         X           Y           Z
   0 O     8.0000    0    15.999   -0.347931   -0.590227  -11.602251
   1 O     8.0000    0    15.999   -2.241682   -4.990364   -9.800878
   2 O     8.0000    0    15.999   -3.427369    0.622488   -5.759384
   3 O     8.0000    0    15.999   -8.996141   -0.902027   -5.345502
   4 O     8.0000    0    15.999   -7.002122   -3.520232   -7.972826
   5 N     7.0000    0    14.007   -4.229183    1.687578   -9.803174
   6 C     6.0000    0    12.011    0.923612   -2.460931   -7.552864
   7 C     6.0000    0    12.011   -0.184411   -0.158551   -8.977734
   8 C     6.0000    0    12.011   -1.080962   -4.570661   -7.417369
   9 C     6.0000    0    12.011    1.697812   -1.700586   -4.875924
  10 C     6.0000    0    12.011    3.246166   -3.424881   -8.988720
  11 C     6.0000    0    12.011   -2.769110    0.707430   -7.961181
  12 C     6.0000    0    12.011   -6.768901    2.538360   -9.359507
  13 C     6.0000    0    12.011   -8.707123    0.373053   -9.593344
  14 C     6.0000    0    12.011   -8.129535   -1.573842   -7.594680
  15 H     1.0000    0     1.008    1.100890    1.455032   -8.734211
  16 H     1.0000    0     1.008   -2.501008   -4.060534   -6.011267
  17 H     1.0000    0     1.008   -0.169680   -6.332598   -6.811255
  18 H     1.0000    0     1.008    3.245265   -0.349617   -4.942041
  19 H     1.0000    0     1.008    2.320202   -3.356373   -3.829035
  20 H     1.0000    0     1.008    0.117340   -0.845809   -3.885919
  21 H     1.0000    0     1.008    4.194505   -4.869689   -7.877315
  22 H     1.0000    0     1.008    4.564123   -1.887024   -9.337223
  23 H     1.0000    0     1.008    2.705516   -4.243432  -10.792355
  24 H     1.0000    0     1.008   -3.567357    1.499711  -11.588706
  25 H     1.0000    0     1.008   -1.004877   -2.307748  -11.761309
  26 H     1.0000    0     1.008   -6.846114    3.297905   -7.438485
  27 H     1.0000    0     1.008   -7.228096    4.025264  -10.713272
  28 H     1.0000    0     1.008   -4.049250   -4.842208   -9.571079
  29 H     1.0000    0     1.008   -8.578408   -0.499026  -11.455552
  30 H     1.0000    0     1.008  -10.596715    1.125593   -9.281962
  31 H     1.0000    0     1.008   -8.407067   -2.043527   -4.037491

--------------------------------
INTERNAL COORDINATES (ANGSTROEM)
--------------------------------
 O      0   0   0     0.000000000000     0.00000000     0.00000000
 O      1   0   0     2.708252120282     0.00000000     0.00000000
 O      1   2   0     3.553483606950    71.29601868     0.00000000
 O      3   1   2     3.063139504387   117.11811351   303.18219137
 O      4   3   1     2.228454968694    70.34242869    30.93811095
 N      3   1   2     2.253174457503    45.98672216   247.84862132
 C      2   1   3     2.452020519720    56.54113980   299.09527221
 C      1   2   3     1.410153153191    79.35772703    30.89071437
 C      2   1   3     1.420378568789    91.03747144   309.06176579
 C      7   2   1     1.528535851253   140.93211272   144.63190476
 C      7   2   1     1.532344180399    97.21639052   278.04650511
 C      3   1   2     1.216927069301    16.72934417   232.07767468
 C      6   3   1     1.436678286036    95.70159511   166.83099391
 C     13   6   3     1.542797862179   112.08956752   271.35343638
 C      5   4   3     1.206998568671    29.76939720   273.60160727
 H      8   1   2     1.099230902892   106.21623682   163.99526076
 H      9   2   1     1.091425169461   110.26300456   107.10066724
 H      9   2   1     1.097609576003   108.46072183   225.48703278
 H     10   7   2     1.087597274327   110.18287966   184.55599000
 H     10   7   2     1.087710657183   109.94535798    64.97103410
 H     10   7   2     1.085606629346   110.51295109   304.78615665
 H     11   7   2     1.087331589353   109.63619374   260.66024789
 H     11   7   2     1.087516280933   110.44783049   140.80528634
 H     11   7   2     1.086480478650   110.92256641    20.39687736
 H      6   3   1     1.012573565990   142.79896766   359.94086070
 H      1   2   3     0.976723233106    25.65637632   205.91354590
 H     13   6   3     1.093899510818   107.57468138    30.94008271
 H     13   6   3     1.091494547602   109.08110009   149.84273686
 H      2   1   3     0.967405074635   109.90326919    58.27923413
 H     14  13   6     1.090273396690   110.20164735   302.61071440
 H     14  13   6     1.088849819874   109.07165606   181.23565440
 H      4   3   1     0.970130850622    84.59917184   117.11748236

---------------------------
INTERNAL COORDINATES (A.U.)
---------------------------
 O      0   0   0     0.000000000000     0.00000000     0.00000000
 O      1   0   0     5.117854808945     0.00000000     0.00000000
 O      1   2   0     6.715110838514    71.29601868     0.00000000
 O      3   1   2     5.788494773286   117.11811351   303.18219137
 O      4   3   1     4.211169592608    70.34242869    30.93811095
 N      3   1   2     4.257882656628    45.98672216   247.84862132
 C      2   1   3     4.633647257026    56.54113980   299.09527221
 C      1   2   3     2.664803266416    79.35772703    30.89071437
 C      2   1   3     2.684126501502    91.03747144   309.06176579
 C      7   2   1     2.888514144748   140.93211272   144.63190476
 C      7   2   1     2.895710843862    97.21639052   278.04650511
 C      3   1   2     2.299658885934    16.72934417   232.07767468
 C      6   3   1     2.714928503160    95.70159511   166.83099391
 C     13   6   3     2.915465439518   112.08956752   271.35343638
 C      5   4   3     2.280896738822    29.76939720   273.60160727
 H      8   1   2     2.077245364409   106.21623682   163.99526076
 H      9   2   1     2.062494665950   110.26300456   107.10066724
 H      9   2   1     2.074181500616   108.46072183   225.48703278
 H     10   7   2     2.055260992477   110.18287966   184.55599000
 H     10   7   2     2.055475255023   109.94535798    64.97103410
 H     10   7   2     2.051499218633   110.51295109   304.78615665
 H     11   7   2     2.054758920639   109.63619374   260.66024789
 H     11   7   2     2.055107937144   110.44783049   140.80528634
 H     11   7   2     2.053150554500   110.92256641    20.39687736
 H      6   3   1     1.913486730170   142.79896766   359.94086070
 H      1   2   3     1.845739419208    25.65637632   205.91354590
 H     13   6   3     2.067170493476   107.57468138    30.94008271
 H     13   6   3     2.062625771635   109.08110009   149.84273686
 H      2   1   3     1.828130651627   109.90326919    58.27923413
 H     14  13   6     2.060318130845   110.20164735   302.61071440
 H     14  13   6     2.057627960532   109.07165606   181.23565440
 H      4   3   1     1.833281621743    84.59917184   117.11748236

---------------------
BASIS SET INFORMATION
---------------------
There are 4 groups of distinct atoms

 Group   1 Type O   : 11s6p2d contracted to 5s3p2d pattern {62111/411/11}
 Group   2 Type N   : 11s6p1d contracted to 5s3p1d pattern {62111/411/1}
 Group   3 Type C   : 11s6p1d contracted to 5s3p1d pattern {62111/411/1}
 Group   4 Type H   : 5s contracted to 3s pattern {311}

Atom   0O    basis set group =>   1
Atom   1O    basis set group =>   1
Atom   2O    basis set group =>   1
Atom   3O    basis set group =>   1
Atom   4O    basis set group =>   1
Atom   5N    basis set group =>   2
Atom   6C    basis set group =>   3
Atom   7C    basis set group =>   3
Atom   8C    basis set group =>   3
Atom   9C    basis set group =>   3
Atom  10C    basis set group =>   3
Atom  11C    basis set group =>   3
Atom  12C    basis set group =>   3
Atom  13C    basis set group =>   3
Atom  14C    basis set group =>   3
Atom  15H    basis set group =>   4
Atom  16H    basis set group =>   4
Atom  17H    basis set group =>   4
Atom  18H    basis set group =>   4
Atom  19H    basis set group =>   4
Atom  20H    basis set group =>   4
Atom  21H    basis set group =>   4
Atom  22H    basis set group =>   4
Atom  23H    basis set group =>   4
Atom  24H    basis set group =>   4
Atom  25H    basis set group =>   4
Atom  26H    basis set group =>   4
Atom  27H    basis set group =>   4
Atom  28H    basis set group =>   4
Atom  29H    basis set group =>   4
Atom  30H    basis set group =>   4
Atom  31H    basis set group =>   4
---------------------------------
AUXILIARY/J BASIS SET INFORMATION
---------------------------------
There are 4 groups of distinct atoms

 Group   1 Type O   : 8s3p3d contracted to 6s3p3d pattern {311111/111/111}
 Group   2 Type N   : 8s3p3d contracted to 6s3p3d pattern {311111/111/111}
 Group   3 Type C   : 8s3p3d contracted to 6s3p3d pattern {311111/111/111}
 Group   4 Type H   : 5s2p contracted to 3s1p pattern {311/2}

Atom   0O    basis set group =>   1
Atom   1O    basis set group =>   1
Atom   2O    basis set group =>   1
Atom   3O    basis set group =>   1
Atom   4O    basis set group =>   1
Atom   5N    basis set group =>   2
Atom   6C    basis set group =>   3
Atom   7C    basis set group =>   3
Atom   8C    basis set group =>   3
Atom   9C    basis set group =>   3
Atom  10C    basis set group =>   3
Atom  11C    basis set group =>   3
Atom  12C    basis set group =>   3
Atom  13C    basis set group =>   3
Atom  14C    basis set group =>   3
Atom  15H    basis set group =>   4
Atom  16H    basis set group =>   4
Atom  17H    basis set group =>   4
Atom  18H    basis set group =>   4
Atom  19H    basis set group =>   4
Atom  20H    basis set group =>   4
Atom  21H    basis set group =>   4
Atom  22H    basis set group =>   4
Atom  23H    basis set group =>   4
Atom  24H    basis set group =>   4
Atom  25H    basis set group =>   4
Atom  26H    basis set group =>   4
Atom  27H    basis set group =>   4
Atom  28H    basis set group =>   4
Atom  29H    basis set group =>   4
Atom  30H    basis set group =>   4
Atom  31H    basis set group =>   4


           ************************************************************
           *        Program running with 16 parallel MPI-processes    *
           *              working on a common directory               *
           ************************************************************
------------------------------------------------------------------------------
                             ORCA STARTUP CALCULATIONS
                           -- RI-GTO INTEGRALS CHOSEN --
------------------------------------------------------------------------------
------------------------------------------------------------------------------
                   ___                                                        
                  /   \      - P O W E R E D   B Y -                         
                 /     \                                                     
                 |  |  |   _    _      __       _____    __    __             
                 |  |  |  | |  | |    /  \     |  _  \  |  |  /  |          
                  \  \/   | |  | |   /    \    | | | |  |  | /  /          
                 / \  \   | |__| |  /  /\  \   | |_| |  |  |/  /          
                |  |  |   |  __  | /  /__\  \  |    /   |      \           
                |  |  |   | |  | | |   __   |  |    \   |  |\   \          
                \     /   | |  | | |  |  |  |  | |\  \  |  | \   \       
                 \___/    |_|  |_| |__|  |__|  |_| \__\ |__|  \__/        
                                                                              
                      - O R C A' S   B I G   F R I E N D -                    
                                      &                                       
                       - I N T E G R A L  F E E D E R -                       
                                                                              
 v1 FN, 2020, v2 2021, v3 2022-2024                                           
------------------------------------------------------------------------------


----------------------
SHARK INTEGRAL PACKAGE
----------------------

Number of atoms                             ...     32
Number of basis functions                   ...    361
Number of shells                            ...    191
Maximum angular momentum                    ...      2
Integral batch strategy                     ... SHARK/LIBINT Hybrid
RI-J (if used) integral strategy            ... SPLIT-RIJ (Revised 2003 algorithm where possible)
Printlevel                                  ...      1
Contraction scheme used                     ... SEGMENTED contraction
Prescreening option                         ... SCHWARTZ
   Thresh                                   ... 2.500e-11
   Tcut                                     ... 2.500e-12
   Tpresel                                  ... 2.500e-12 
Coulomb Range Separation                    ... NOT USED
Exchange Range Separation                   ... NOT USED
Multipole approximations                    ... NOT USED
Finite Nucleus Model                        ... NOT USED
CABS basis                                  ... NOT available
Auxiliary Coulomb fitting basis             ... AVAILABLE
   # of basis functions in Aux-J            ...    552
   # of shells in Aux-J                     ...    248
   Maximum angular momentum in Aux-J        ...      2
Auxiliary J/K fitting basis                 ... NOT available
Auxiliary Correlation fitting basis         ... NOT available
Auxiliary 'external' fitting basis          ... NOT available

Checking pre-screening integrals            ... done (  0.0 sec) Dimension = 191
Check shell pair data                       ... done (  0.0 sec)
Shell pair information
Shell pair cut-off parameter TPreSel        ...   2.5e-12
Total number of shell pairs                 ...     18336
Shell pairs after pre-screening             ...     15560
Total number of primitive shell pairs       ...     65361
Primitive shell pairs kept                  ...     37006
          la=0 lb=0:   6377 shell pairs
          la=1 lb=0:   5023 shell pairs
          la=1 lb=1:    989 shell pairs
          la=2 lb=0:   2143 shell pairs
          la=2 lb=1:    837 shell pairs
          la=2 lb=2:    191 shell pairs

Calculating one electron integrals          ... done (  0.0 sec)
Calculating RI/J V-Matrix + Cholesky decomp.... done (  0.0 sec)
Calculating Nuclear repulsion               ... done (  0.0 sec) ENN=   1174.351655088559 Eh

Diagonalization of the overlap matrix:
Smallest eigenvalue                        ... 4.089e-05
Time for diagonalization                   ...    0.010 sec
Threshold for overlap eigenvalues          ... 1.000e-07
Number of eigenvalues below threshold      ... 0
Time for construction of square roots      ...    0.005 sec
Total time needed                          ...    0.017 sec

-------------------
DFT GRID GENERATION
-------------------

General Integration Accuracy     IntAcc      ... 4.959
Radial Grid Type                 RadialGrid  ... OptM3 with GC (2021)
Angular Grid (max. ang.)         AngularGrid ... 6 (Lebedev-590)
Angular grid pruning method      GridPruning ... 4 (adaptive)
Weight generation scheme         WeightScheme... mBecke (2022)
Basis function cutoff            BFCut       ... 1.0000e-11
Integration weight cutoff        WCut        ... 1.0000e-14
Partially contracted basis set               ... off
Rotationally invariant grid construction     ... off
Angular grids for H and He will be reduced by one unit
Diffuse basis detected: some atoms will have their outermost
                        angular grid increased by 1.

Total number of grid points                  ...   359876
Total number of batches                      ...     5641
Average number of points per batch           ...       63
Average number of grid points per atom       ...    11246
Initializing property integral containers    ... done (  0.0 sec)

SHARK setup successfully completed in   2.7 seconds

Maximum memory used throughout the entire STARTUP-calculation: 82.1 MB


           ************************************************************
           *        Program running with 16 parallel MPI-processes    *
           *              working on a common directory               *
           ************************************************************
-------------------------------------------------------------------------------
                                 ORCA GUESS
                   Start orbitals & Density for SCF / CASSCF
-------------------------------------------------------------------------------

------------
SCF SETTINGS
------------
Hamiltonian:
 Density Functional     Method          .... DFT(GTOs)
 Exchange Functional    Exchange        .... B973C
 Correlation Functional Correlation     .... B973C
 Gradients option       PostSCFGGA      .... off
 RI-approximation to the Coulomb term is turned on
   Number of AuxJ basis functions       .... 552


General Settings:
 Integral files         IntName         .... m1_00_Vitamin_B5-GFN2_0001-B97-3C-TZ
 Hartree-Fock type      HFTyp           .... RHF
 Total Charge           Charge          ....    0
 Multiplicity           Mult            ....    1
 Number of Electrons    NEL             ....  118
 Basis Dimension        Dim             ....  361
 Nuclear Repulsion      ENuc            ....   1174.3516550886 Eh

Convergence Acceleration:
 AO-DIIS                CNVDIIS         .... on
   Start iteration      DIISMaxIt       ....    12
   Startup error        DIISStart       ....  0.200000
   # of expansion vecs  DIISMaxEq       ....     5
   Bias factor          DIISBfac        ....   1.050
   Max. coefficient     DIISMaxC        ....  10.000
 MO-DIIS                CNVKDIIS        .... off
 Trust-Rad. Augm. Hess. CNVTRAH         .... off
 SOSCF                  CNVSOSCF        .... on
   Start iteration      SOSCFMaxIt      ....   150
   Startup grad/error   SOSCFStart      ....  0.003300
   Hessian update       SOSCFHessUp     .... L-BFGS
 Level Shifting         CNVShift        .... on
   Level shift para.    LevelShift      ....    0.2500
   Turn off err/grad.   ShiftErr        ....    0.0010
 Zerner damping         CNVZerner       .... off
 Static damping         CNVDamp         .... on
   Fraction old density DampFac         ....    0.7000
   Max. Damping (<1)    DampMax         ....    0.9800
   Min. Damping (>=0)   DampMin         ....    0.0000
   Turn off err/grad.   DampErr         ....    0.1000

SCF Procedure:
 Maximum # iterations   MaxIter         ....   800
 SCF integral mode      SCFMode         .... Direct
   Integral package                     .... SHARK and LIBINT hybrid scheme
 Reset frequency        DirectResetFreq ....    20
 Integral Threshold     Thresh          ....  2.500e-11 Eh
 Primitive CutOff       TCut            ....  2.500e-12 Eh

Convergence Tolerance:
 Convergence Check Mode ConvCheckMode   .... Total+1el-Energy
 Convergence forced     ConvForced      .... 0
 Energy Change          TolE            ....  1.000e-08 Eh
 1-El. energy change                    ....  1.000e-05 Eh
 Orbital Gradient       TolG            ....  1.000e-05
 Orbital Rotation angle TolX            ....  1.000e-05
 DIIS Error             TolErr          ....  5.000e-07

--------------------------------
INITIAL GUESS: MINIMAL BASIS EHT
--------------------------------
The minimal basis has 92 functions
EHT matrix was diagonalized
Basis set overlap was calculated now projecting the orbitals
Using GuessMode=FMatrix for the initial guess
C*T matrix was formed
Effective Fockian was calculated
Effective Fockian was diagonalized
Initial density was built
                      ------------------
                      INITIAL GUESS DONE
                      ------------------
             **** ENERGY FILE WAS UPDATED (m1_00_Vitamin_B5-GFN2_0001-B97-3C-TZ.en.tmp) ****
Finished Guess after   0.2 sec
Maximum memory used throughout the entire GUESS-calculation: 26.4 MB


           ************************************************************
           *        Program running with 16 parallel MPI-processes    *
           *              working on a common directory               *
           ************************************************************

-------------------------------------------------------------------------------------------
                                      ORCA LEAN-SCF
                              memory conserving SCF solver
-------------------------------------------------------------------------------------------

----------------------------------------D-I-I-S--------------------------------------------
Iteration    Energy (Eh)           Delta-E    RMSDP     MaxDP     DIISErr   Damp  Time(sec)
-------------------------------------------------------------------------------------------
               ***  Starting incremental Fock matrix formation  ***
    1    -780.9606928608077396     0.00e+00  5.52e-03  1.89e-01  4.70e-01  0.700   0.6
Warning: op=0 Small HOMO/LUMO gap (   0.087) - skipping pre-diagonalization
         Will do a full diagonalization
    2    -781.9490012163021220    -9.88e-01  4.32e-03  3.23e-01  3.15e-01  0.700   0.6
    3    -782.4440539721838377    -4.95e-01  2.55e-03  1.04e-01  2.23e-01  0.700   0.5
                               ***Turning on AO-DIIS***
    4    -782.7897269140426033    -3.46e-01  1.77e-03  4.76e-02  1.56e-01  0.700   0.6
    5    -783.0329712717639268    -2.43e-01  1.27e-03  3.39e-02  1.08e-01  0.700   0.5
    6    -783.2043690124839941    -1.71e-01  8.89e-04  2.29e-02  7.53e-02  0.700   0.6
    7    -783.3253794548365931    -1.21e-01  2.17e-03  1.19e-01  5.27e-02  0.000   0.5
    8    -783.6054961271488537    -2.80e-01  3.80e-04  3.50e-02  2.38e-02  0.000   0.6
    9    -783.6074968260531932    -2.00e-03  1.25e-04  5.04e-03  9.79e-03  0.000   0.5
   10    -783.6076082898453024    -1.11e-04  4.42e-05  1.76e-03  5.20e-03  0.000   0.5
                              *** Initializing SOSCF ***
---------------------------------------S-O-S-C-F--------------------------------------
Iteration    Energy (Eh)           Delta-E    RMSDP     MaxDP     MaxGrad    Time(sec)
--------------------------------------------------------------------------------------
   11    -783.6077123357410983    -1.04e-04  1.48e-05  5.89e-04  8.27e-04     0.6
               *** Restarting incremental Fock matrix formation ***
   12    -783.6077165837646135    -4.25e-06  1.95e-05  2.03e-03  5.08e-05     0.6
   13    -783.6077158794034858     7.04e-07  7.92e-06  2.72e-04  8.28e-05     0.5
   14    -783.6077168750994133    -9.96e-07  3.56e-06  2.44e-04  2.43e-05     0.5
   15    -783.6077167942794404     8.08e-08  3.07e-06  3.55e-04  6.54e-05     0.5
   16    -783.6077168980289116    -1.04e-07  2.02e-06  2.11e-04  3.42e-06     0.5
   17    -783.6077169037907879    -5.76e-09  1.09e-06  1.16e-04  5.22e-06     0.5
                 **** Energy Check signals convergence ****

               *****************************************************
               *                     SUCCESS                       *
               *           SCF CONVERGED AFTER  17 CYCLES          *
               *****************************************************

             **** ENERGY FILE WAS UPDATED (m1_00_Vitamin_B5-GFN2_0001-B97-3C-TZ.en.tmp) ****

----------------
TOTAL SCF ENERGY
----------------

Total Energy       :       -783.60771690379079 Eh          -21323.05002 eV

Components:
Nuclear Repulsion  :       1174.35165508855857 Eh           31955.73313 eV
Electronic Energy  :      -1957.95937199234936 Eh          -53278.78315 eV
One Electron Energy:      -3404.63686499240475 Eh          -92644.87907 eV
Two Electron Energy:       1446.67749300005539 Eh           39366.09592 eV

Virial components:
Potential Energy   :      -1564.50181305668639 Eh          -42572.25867 eV
Kinetic Energy     :        780.89409615289571 Eh           21249.20865 eV
Virial Ratio       :          2.00347501762949

DFT components:
N(Alpha)           :       59.000020162204 electrons
N(Beta)            :       59.000020162204 electrons
N(Total)           :      118.000040324409 electrons
E(XC)              :     -104.602356750876 Eh       

---------------
SCF CONVERGENCE
---------------

  Last Energy change         ...    5.7619e-09  Tolerance :   1.0000e-08
  Last MAX-Density change    ...    1.1568e-04  Tolerance :   1.0000e-07
  Last RMS-Density change    ...    1.0859e-06  Tolerance :   5.0000e-09
  Last DIIS Error            ...    8.2729e-04  Tolerance :   5.0000e-07
  Last Orbital Gradient      ...    5.2162e-06  Tolerance :   1.0000e-05
  Last Orbital Rotation      ...    5.7040e-06  Tolerance :   1.0000e-05


----------------
ORBITAL ENERGIES
----------------

  NO   OCC          E(Eh)            E(eV) 
   0   2.0000     -18.806195      -511.7426 
   1   2.0000     -18.747726      -510.1516 
   2   2.0000     -18.740960      -509.9674 
   3   2.0000     -18.736306      -509.8408 
   4   2.0000     -18.708862      -509.0940 
   5   2.0000     -14.011421      -381.2702 
   6   2.0000     -10.034077      -273.0411 
   7   2.0000      -9.979094      -271.5450 
   8   2.0000      -9.946054      -270.6459 
   9   2.0000      -9.944066      -270.5918 
  10   2.0000      -9.924965      -270.0720 
  11   2.0000      -9.921631      -269.9813 
  12   2.0000      -9.899702      -269.3846 
  13   2.0000      -9.869406      -268.5602 
  14   2.0000      -9.867303      -268.5030 
  15   2.0000      -1.045299       -28.4440 
  16   2.0000      -0.968071       -26.3425 
  17   2.0000      -0.956687       -26.0328 
  18   2.0000      -0.947160       -25.7735 
  19   2.0000      -0.931905       -25.3584 
  20   2.0000      -0.857794       -23.3417 
  21   2.0000      -0.741888       -20.1878 
  22   2.0000      -0.733139       -19.9497 
  23   2.0000      -0.654463       -17.8088 
  24   2.0000      -0.619120       -16.8471 
  25   2.0000      -0.612100       -16.6561 
  26   2.0000      -0.607740       -16.5375 
  27   2.0000      -0.574219       -15.6253 
  28   2.0000      -0.533468       -14.5164 
  29   2.0000      -0.508300       -13.8315 
  30   2.0000      -0.491414       -13.3720 
  31   2.0000      -0.477564       -12.9952 
  32   2.0000      -0.457651       -12.4533 
  33   2.0000      -0.442759       -12.0481 
  34   2.0000      -0.440715       -11.9925 
  35   2.0000      -0.434441       -11.8217 
  36   2.0000      -0.418874       -11.3981 
  37   2.0000      -0.413638       -11.2557 
  38   2.0000      -0.391248       -10.6464 
  39   2.0000      -0.383562       -10.4372 
  40   2.0000      -0.375093       -10.2068 
  41   2.0000      -0.371993       -10.1225 
  42   2.0000      -0.365906        -9.9568 
  43   2.0000      -0.359995        -9.7960 
  44   2.0000      -0.346406        -9.4262 
  45   2.0000      -0.340244        -9.2585 
  46   2.0000      -0.337516        -9.1843 
  47   2.0000      -0.331989        -9.0339 
  48   2.0000      -0.324020        -8.8170 
  49   2.0000      -0.318648        -8.6708 
  50   2.0000      -0.298350        -8.1185 
  51   2.0000      -0.293665        -7.9910 
  52   2.0000      -0.283647        -7.7184 
  53   2.0000      -0.275369        -7.4932 
  54   2.0000      -0.253393        -6.8952 
  55   2.0000      -0.249341        -6.7849 
  56   2.0000      -0.226290        -6.1577 
  57   2.0000      -0.219744        -5.9795 
  58   2.0000      -0.197747        -5.3810 
  59   0.0000      -0.045349        -1.2340 
  60   0.0000      -0.015014        -0.4086 
  61   0.0000       0.008233         0.2240 
  62   0.0000       0.030252         0.8232 
  63   0.0000       0.041330         1.1246 
  64   0.0000       0.050270         1.3679 
  65   0.0000       0.062357         1.6968 
  66   0.0000       0.066571         1.8115 
  67   0.0000       0.075348         2.0503 
  68   0.0000       0.082215         2.2372 
  69   0.0000       0.087329         2.3763 
*Only the first 10 virtual orbitals were printed.

                    ********************************
                    * MULLIKEN POPULATION ANALYSIS *
                    ********************************

-----------------------
MULLIKEN ATOMIC CHARGES
-----------------------
   0 O :   -0.629958
   1 O :   -0.620720
   2 O :   -0.453662
   3 O :   -0.468623
   4 O :   -0.457278
   5 N :   -0.293485
   6 C :    0.185330
   7 C :   -0.025222
   8 C :   -0.276537
   9 C :   -0.529983
  10 C :   -0.487693
  11 C :    0.264590
  12 C :   -0.333908
  13 C :   -0.247806
  14 C :    0.382887
  15 H :    0.195971
  16 H :    0.179158
  17 H :    0.146648
  18 H :    0.159283
  19 H :    0.160151
  20 H :    0.200274
  21 H :    0.170117
  22 H :    0.165125
  23 H :    0.180822
  24 H :    0.350814
  25 H :    0.424173
  26 H :    0.198814
  27 H :    0.205974
  28 H :    0.448259
  29 H :    0.180589
  30 H :    0.181295
  31 H :    0.444604
Sum of atomic charges:   -0.0000000

--------------------------------
MULLIKEN REDUCED ORBITAL CHARGES
--------------------------------
  0 O s       :     3.814479  s :     3.814479
      pz      :     1.374148  p :     4.780119
      px      :     1.853644
      py      :     1.552327
      dz2     :     0.012522  d :     0.035360
      dxz     :     0.001855
      dyz     :    -0.000198
      dx2y2   :     0.007560
      dxy     :     0.013621

  1 O s       :     3.794797  s :     3.794797
      pz      :     1.480274  p :     4.784664
      px      :     1.410291
      py      :     1.894099
      dz2     :     0.009141  d :     0.041258
      dxz     :     0.004366
      dyz     :     0.003105
      dx2y2   :     0.010977
      dxy     :     0.013670

  2 O s       :     3.846880  s :     3.846880
      pz      :     1.343466  p :     4.573506
      px      :     1.708479
      py      :     1.521562
      dz2     :     0.012179  d :     0.033276
      dxz     :     0.002811
      dyz     :     0.008923
      dx2y2   :     0.002199
      dxy     :     0.007164

  3 O s       :     3.755735  s :     3.755735
      pz      :     1.263748  p :     4.669065
      px      :     1.712160
      py      :     1.693157
      dz2     :     0.004487  d :     0.043823
      dxz     :     0.007238
      dyz     :     0.015219
      dx2y2   :     0.006995
      dxy     :     0.009885

  4 O s       :     3.827121  s :     3.827121
      pz      :     1.783174  p :     4.588032
      px      :     1.438545
      py      :     1.366313
      dz2     :     0.004793  d :     0.042125
      dxz     :     0.007090
      dyz     :     0.009563
      dx2y2   :     0.010312
      dxy     :     0.010366

  5 N s       :     3.313884  s :     3.313884
      pz      :     1.205956  p :     3.938363
      px      :     1.180746
      py      :     1.551661
      dz2     :     0.011792  d :     0.041238
      dxz     :     0.012046
      dyz     :     0.004883
      dx2y2   :     0.006555
      dxy     :     0.005963

  6 C s       :     2.904415  s :     2.904415
      pz      :     0.917403  p :     2.856271
      px      :     0.944358
      py      :     0.994509
      dz2     :     0.011222  d :     0.053984
      dxz     :     0.010399
      dyz     :     0.010067
      dx2y2   :     0.008282
      dxy     :     0.014014

  7 C s       :     3.126383  s :     3.126383
      pz      :     0.740233  p :     2.828664
      px      :     1.004907
      py      :     1.083524
      dz2     :     0.019815  d :     0.070175
      dxz     :     0.016530
      dyz     :     0.012955
      dx2y2   :     0.007464
      dxy     :     0.013412

  8 C s       :     3.285134  s :     3.285134
      pz      :     0.841143  p :     2.927643
      px      :     0.994335
      py      :     1.092165
      dz2     :     0.013534  d :     0.063761
      dxz     :     0.017094
      dyz     :     0.012289
      dx2y2   :     0.007205
      dxy     :     0.013639

  9 C s       :     3.254732  s :     3.254732
      pz      :     0.975844  p :     3.237689
      px      :     1.153387
      py      :     1.108458
      dz2     :     0.007761  d :     0.037562
      dxz     :     0.007651
      dyz     :     0.008502
      dx2y2   :     0.003069
      dxy     :     0.010578

 10 C s       :     3.232255  s :     3.232255
      pz      :     1.087711  p :     3.217729
      px      :     1.018663
      py      :     1.111355
      dz2     :     0.007237  d :     0.037709
      dxz     :     0.006999
      dyz     :     0.008448
      dx2y2   :     0.003239
      dxy     :     0.011786

 11 C s       :     3.151950  s :     3.151950
      pz      :     0.773921  p :     2.472395
      px      :     0.880390
      py      :     0.818085
      dz2     :     0.025144  d :     0.111065
      dxz     :     0.040757
      dyz     :     0.028787
      dx2y2   :     0.008884
      dxy     :     0.007494

 12 C s       :     3.246204  s :     3.246204
      pz      :     1.174238  p :     3.031190
      px      :     0.826623
      py      :     1.030329
      dz2     :     0.010687  d :     0.056514
      dxz     :     0.005308
      dyz     :     0.011417
      dx2y2   :     0.013418
      dxy     :     0.015684

 13 C s       :     3.103483  s :     3.103483
      pz      :     1.054097  p :     3.102554
      px      :     1.046570
      py      :     1.001887
      dz2     :     0.009453  d :     0.041769
      dxz     :     0.002979
      dyz     :     0.013118
      dx2y2   :     0.007699
      dxy     :     0.008520

 14 C s       :     3.144017  s :     3.144017
      pz      :     0.779965  p :     2.350409
      px      :     0.764865
      py      :     0.805579
      dz2     :     0.024233  d :     0.122687
      dxz     :     0.022203
      dyz     :     0.039373
      dx2y2   :     0.021432
      dxy     :     0.015445

 15 H s       :     0.804029  s :     0.804029

 16 H s       :     0.820842  s :     0.820842

 17 H s       :     0.853352  s :     0.853352

 18 H s       :     0.840717  s :     0.840717

 19 H s       :     0.839849  s :     0.839849

 20 H s       :     0.799726  s :     0.799726

 21 H s       :     0.829883  s :     0.829883

 22 H s       :     0.834875  s :     0.834875

 23 H s       :     0.819178  s :     0.819178

 24 H s       :     0.649186  s :     0.649186

 25 H s       :     0.575827  s :     0.575827

 26 H s       :     0.801186  s :     0.801186

 27 H s       :     0.794026  s :     0.794026

 28 H s       :     0.551741  s :     0.551741

 29 H s       :     0.819411  s :     0.819411

 30 H s       :     0.818705  s :     0.818705

 31 H s       :     0.555396  s :     0.555396



                     *******************************
                     * LOEWDIN POPULATION ANALYSIS *
                     *******************************

----------------------
LOEWDIN ATOMIC CHARGES
----------------------
   0 O :   -0.785383
   1 O :   -0.755298
   2 O :   -0.578818
   3 O :   -0.484079
   4 O :   -0.454433
   5 N :   -0.194807
   6 C :   -0.098727
   7 C :    0.116259
   8 C :    0.034067
   9 C :   -0.402432
  10 C :   -0.383521
  11 C :    0.272992
  12 C :   -0.158133
  13 C :   -0.222797
  14 C :    0.359828
  15 H :    0.201136
  16 H :    0.195353
  17 H :    0.170008
  18 H :    0.156894
  19 H :    0.156241
  20 H :    0.191537
  21 H :    0.155315
  22 H :    0.160571
  23 H :    0.172910
  24 H :    0.319726
  25 H :    0.375565
  26 H :    0.192036
  27 H :    0.161059
  28 H :    0.375261
  29 H :    0.179479
  30 H :    0.188064
  31 H :    0.384127

-------------------------------
LOEWDIN REDUCED ORBITAL CHARGES
-------------------------------
  0 O s       :     3.539504  s :     3.539504
      pz      :     1.470484  p :     4.839396
      px      :     1.823598
      py      :     1.545314
      dz2     :     0.118084  d :     0.406483
      dxz     :     0.085875
      dyz     :     0.089706
      dx2y2   :     0.043353
      dxy     :     0.069466

  1 O s       :     3.532963  s :     3.532963
      pz      :     1.566019  p :     4.844594
      px      :     1.421758
      py      :     1.856818
      dz2     :     0.102412  d :     0.377741
      dxz     :     0.091499
      dyz     :     0.076960
      dx2y2   :     0.054267
      dxy     :     0.052603

  2 O s       :     3.539141  s :     3.539141
      pz      :     1.504580  p :     4.708729
      px      :     1.684176
      py      :     1.519973
      dz2     :     0.096898  d :     0.330948
      dxz     :     0.096644
      dyz     :     0.063668
      dx2y2   :     0.037035
      dxy     :     0.036702

  3 O s       :     3.501070  s :     3.501070
      pz      :     1.344471  p :     4.698184
      px      :     1.693845
      py      :     1.659869
      dz2     :     0.084341  d :     0.284825
      dxz     :     0.056226
      dyz     :     0.077142
      dx2y2   :     0.031638
      dxy     :     0.035479

  4 O s       :     3.512696  s :     3.512696
      pz      :     1.727030  p :     4.642055
      px      :     1.432700
      py      :     1.482325
      dz2     :     0.038048  d :     0.299683
      dxz     :     0.050138
      dyz     :     0.065260
      dx2y2   :     0.068475
      dxy     :     0.077762

  5 N s       :     3.106481  s :     3.106481
      pz      :     1.243307  p :     4.009609
      px      :     1.253937
      py      :     1.512365
      dz2     :     0.021407  d :     0.078717
      dxz     :     0.023719
      dyz     :     0.009093
      dx2y2   :     0.012408
      dxy     :     0.012091

  6 C s       :     2.851578  s :     2.851578
      pz      :     1.052481  p :     3.140534
      px      :     1.047280
      py      :     1.040773
      dz2     :     0.022440  d :     0.106615
      dxz     :     0.020733
      dyz     :     0.019468
      dx2y2   :     0.016009
      dxy     :     0.027965

  7 C s       :     2.822409  s :     2.822409
      pz      :     0.869969  p :     2.921436
      px      :     1.016926
      py      :     1.034540
      dz2     :     0.043810  d :     0.139896
      dxz     :     0.032790
      dyz     :     0.026765
      dx2y2   :     0.013148
      dxy     :     0.023384

  8 C s       :     2.864303  s :     2.864303
      pz      :     0.902646  p :     2.975507
      px      :     1.023289
      py      :     1.049572
      dz2     :     0.030910  d :     0.126123
      dxz     :     0.033863
      dyz     :     0.023552
      dx2y2   :     0.011007
      dxy     :     0.026791

  9 C s       :     2.975862  s :     2.975862
      pz      :     1.081044  p :     3.364890
      px      :     1.145578
      py      :     1.138268
      dz2     :     0.014229  d :     0.061679
      dxz     :     0.012850
      dyz     :     0.014366
      dx2y2   :     0.004235
      dxy     :     0.015999

 10 C s       :     2.976070  s :     2.976070
      pz      :     1.127721  p :     3.345452
      px      :     1.082919
      py      :     1.134811
      dz2     :     0.011525  d :     0.062000
      dxz     :     0.012256
      dyz     :     0.013523
      dx2y2   :     0.005793
      dxy     :     0.018904

 11 C s       :     2.769427  s :     2.769427
      pz      :     0.971934  p :     2.714769
      px      :     0.947950
      py      :     0.794885
      dz2     :     0.062532  d :     0.242812
      dxz     :     0.091123
      dyz     :     0.058190
      dx2y2   :     0.017052
      dxy     :     0.013915

 12 C s       :     2.908656  s :     2.908656
      pz      :     1.143852  p :     3.143592
      px      :     0.937953
      py      :     1.061787
      dz2     :     0.019178  d :     0.105886
      dxz     :     0.010255
      dyz     :     0.018430
      dx2y2   :     0.025873
      dxy     :     0.032150

 13 C s       :     2.930828  s :     2.930828
      pz      :     1.075519  p :     3.219736
      px      :     1.085960
      py      :     1.058257
      dz2     :     0.016683  d :     0.072234
      dxz     :     0.004616
      dyz     :     0.022350
      dx2y2   :     0.012631
      dxy     :     0.015954

 14 C s       :     2.745812  s :     2.745812
      pz      :     0.907320  p :     2.622338
      px      :     0.773687
      py      :     0.941331
      dz2     :     0.054988  d :     0.272022
      dxz     :     0.049277
      dyz     :     0.086621
      dx2y2   :     0.043204
      dxy     :     0.037932

 15 H s       :     0.798864  s :     0.798864

 16 H s       :     0.804647  s :     0.804647

 17 H s       :     0.829992  s :     0.829992

 18 H s       :     0.843106  s :     0.843106

 19 H s       :     0.843759  s :     0.843759

 20 H s       :     0.808463  s :     0.808463

 21 H s       :     0.844685  s :     0.844685

 22 H s       :     0.839429  s :     0.839429

 23 H s       :     0.827090  s :     0.827090

 24 H s       :     0.680274  s :     0.680274

 25 H s       :     0.624435  s :     0.624435

 26 H s       :     0.807964  s :     0.807964

 27 H s       :     0.838941  s :     0.838941

 28 H s       :     0.624739  s :     0.624739

 29 H s       :     0.820521  s :     0.820521

 30 H s       :     0.811936  s :     0.811936

 31 H s       :     0.615873  s :     0.615873



                      *****************************
                      * MAYER POPULATION ANALYSIS *
                      *****************************

  NA   - Mulliken gross atomic population
  ZA   - Total nuclear charge
  QA   - Mulliken gross atomic charge
  VA   - Mayer's total valence
  BVA  - Mayer's bonded valence
  FA   - Mayer's free valence

  ATOM       NA         ZA         QA         VA         BVA        FA
  0 O      8.6300     8.0000    -0.6300     1.7816     1.7816     0.0000
  1 O      8.6207     8.0000    -0.6207     1.7656     1.7656     0.0000
  2 O      8.4537     8.0000    -0.4537     2.0529     2.0529     0.0000
  3 O      8.4686     8.0000    -0.4686     1.9831     1.9831     0.0000
  4 O      8.4573     8.0000    -0.4573     2.0435     2.0435    -0.0000
  5 N      7.2935     7.0000    -0.2935     2.9418     2.9418     0.0000
  6 C      5.8147     6.0000     0.1853     3.6209     3.6209    -0.0000
  7 C      6.0252     6.0000    -0.0252     3.3761     3.3761    -0.0000
  8 C      6.2765     6.0000    -0.2765     3.7811     3.7811     0.0000
  9 C      6.5300     6.0000    -0.5300     3.6688     3.6688     0.0000
 10 C      6.4877     6.0000    -0.4877     3.6961     3.6961    -0.0000
 11 C      5.7354     6.0000     0.2646     3.9421     3.9421    -0.0000
 12 C      6.3339     6.0000    -0.3339     3.7959     3.7959    -0.0000
 13 C      6.2478     6.0000    -0.2478     3.6024     3.6024    -0.0000
 14 C      5.6171     6.0000     0.3829     3.9865     3.9865    -0.0000
 15 H      0.8040     1.0000     0.1960     0.9295     0.9295    -0.0000
 16 H      0.8208     1.0000     0.1792     0.9632     0.9632     0.0000
 17 H      0.8534     1.0000     0.1466     0.9416     0.9416     0.0000
 18 H      0.8407     1.0000     0.1593     0.9572     0.9572    -0.0000
 19 H      0.8398     1.0000     0.1602     0.9538     0.9538     0.0000
 20 H      0.7997     1.0000     0.2003     0.9835     0.9835     0.0000
 21 H      0.8299     1.0000     0.1701     0.9485     0.9485    -0.0000
 22 H      0.8349     1.0000     0.1651     0.9584     0.9584    -0.0000
 23 H      0.8192     1.0000     0.1808     0.9646     0.9646    -0.0000
 24 H      0.6492     1.0000     0.3508     0.8781     0.8781     0.0000
 25 H      0.5758     1.0000     0.4242     0.8416     0.8416     0.0000
 26 H      0.8012     1.0000     0.1988     0.9653     0.9653    -0.0000
 27 H      0.7940     1.0000     0.2060     0.9304     0.9304    -0.0000
 28 H      0.5517     1.0000     0.4483     0.8043     0.8043    -0.0000
 29 H      0.8194     1.0000     0.1806     0.9632     0.9632    -0.0000
 30 H      0.8187     1.0000     0.1813     0.9590     0.9590     0.0000
 31 H      0.5554     1.0000     0.4446     0.7870     0.7870     0.0000

  Mayer bond orders larger than 0.100000
B(  0-O ,  7-C ) :   1.0452 B(  0-O , 25-H ) :   0.7023 B(  1-O ,  8-C ) :   0.9960 
B(  1-O , 25-H ) :   0.1183 B(  1-O , 28-H ) :   0.7070 B(  2-O ,  6-C ) :   0.1093 
B(  2-O , 11-C ) :   1.8525 B(  3-O , 14-C ) :   1.1674 B(  3-O , 31-H ) :   0.7355 
B(  4-O , 14-C ) :   1.8445 B(  5-N , 11-C ) :   1.3103 B(  5-N , 12-C ) :   0.8987 
B(  5-N , 24-H ) :   0.7758 B(  6-C ,  7-C ) :   0.8142 B(  6-C ,  8-C ) :   0.9640 
B(  6-C ,  9-C ) :   0.9330 B(  6-C , 10-C ) :   0.9785 B(  7-C , 11-C ) :   0.7830 
B(  7-C , 15-H ) :   0.9220 B(  8-C , 16-H ) :   0.9283 B(  8-C , 17-H ) :   0.9312 
B(  9-C , 18-H ) :   0.9485 B(  9-C , 19-H ) :   0.9454 B(  9-C , 20-H ) :   0.9558 
B( 10-C , 21-H ) :   0.9506 B( 10-C , 22-H ) :   0.9523 B( 10-C , 23-H ) :   0.9600 
B( 12-C , 13-C ) :   0.9330 B( 12-C , 26-H ) :   0.9404 B( 12-C , 27-H ) :   0.9324 
B( 13-C , 14-C ) :   0.9020 B( 13-C , 29-H ) :   0.9608 B( 13-C , 30-H ) :   0.9306 



------------------
HIRSHFELD ANALYSIS
------------------

Total integrated alpha density =     59.000020162
Total integrated beta density  =     59.000020162

  ATOM     CHARGE      SPIN    
   0 O   -0.232192    0.000000
   1 O   -0.216074    0.000000
   2 O   -0.289413    0.000000
   3 O   -0.157135    0.000000
   4 O   -0.254446    0.000000
   5 N   -0.112277    0.000000
   6 C    0.013860    0.000000
   7 C    0.058646    0.000000
   8 C    0.028391    0.000000
   9 C   -0.084859    0.000000
  10 C   -0.084037    0.000000
  11 C    0.161849    0.000000
  12 C    0.020396    0.000000
  13 C   -0.042678    0.000000
  14 C    0.223560    0.000000
  15 H    0.038611    0.000000
  16 H    0.021916    0.000000
  17 H    0.022334    0.000000
  18 H    0.025805    0.000000
  19 H    0.025108    0.000000
  20 H    0.022647    0.000000
  21 H    0.025744    0.000000
  22 H    0.026529    0.000000
  23 H    0.025796    0.000000
  24 H    0.113326    0.000000
  25 H    0.124332    0.000000
  26 H    0.039952    0.000000
  27 H    0.042926    0.000000
  28 H    0.127743    0.000000
  29 H    0.042874    0.000000
  30 H    0.046574    0.000000
  31 H    0.194152    0.000000

  TOTAL  -0.000040    0.000000

-------
TIMINGS
-------

Total SCF time: 0 days 0 hours 0 min 10 sec 

Total time                  ....      10.270 sec
Sum of individual times     ....      10.153 sec  ( 98.9%)

SCF preparation             ....       0.221 sec  (  2.2%)
Fock matrix formation       ....       8.388 sec  ( 81.7%)
  Startup                   ....       0.019 sec  (  0.2% of F)
  Split-RI-J                ....       1.360 sec  ( 16.2% of F)
  XC integration            ....       6.693 sec  ( 79.8% of F)
    XC Preparation          ....       0.000 sec  (  0.0% of XC)
    Basis function eval.    ....       1.545 sec  ( 23.1% of XC)
    Density eval.           ....       1.703 sec  ( 25.4% of XC)
    XC-Functional eval.     ....       0.136 sec  (  2.0% of XC)
    XC-Potential eval.      ....       1.367 sec  ( 20.4% of XC)
Diagonalization             ....       0.000 sec  (  0.0%)
Density matrix formation    ....       0.071 sec  (  0.7%)
Total Energy calculation    ....       0.035 sec  (  0.3%)
Population analysis         ....       0.764 sec  (  7.4%)
Orbital Transformation      ....       0.067 sec  (  0.7%)
Orbital Orthonormalization  ....       0.000 sec  (  0.0%)
DIIS solution               ....       0.455 sec  (  4.4%)
SOSCF solution              ....       0.151 sec  (  1.5%)
Finished LeanSCF after  10.3 sec

Maximum memory used throughout the entire LEANSCF-calculation: 65.9 MB


           ************************************************************
           *        Program running with 16 parallel MPI-processes    *
           *              working on a common directory               *
           ************************************************************

------------------------------------------------------------------------------
                         ORCA PROPERTY INTEGRAL CALCULATIONS
------------------------------------------------------------------------------

GBWName                                   ... m1_00_Vitamin_B5-GFN2_0001-B97-3C-TZ.gbw
Number of atoms                           ...     32
Number of basis functions                 ...    361
Max core memory                           ...   6000 MB

Dipole integrals                          ... YES
Quadrupole integrals                      ...  NO
Linear momentum integrals                 ...  NO
Angular momentum integrals                ...  NO
Higher moments length integrals           ...  NO
Higher moments velocity integrals         ...  NO
Kinetic energy integrals                  ...  NO
GIAO right hand sides                     ...  NO
GIAO dipole derivative integrals          ...  NO
SOC integrals                             ...  NO
EPR diamagnetic integrals (GIAO)          ...  NO
EPR gauge integrals                       ...  NO
Field gradient integrals                  ...  NO (   0 nuclei)
Spin-dipole/Fermi contact integrals       ...  NO (   0 nuclei)
Contact density integrals                 ...  NO (   0 nuclei)
Nucleus-orbit integrals                   ...  NO (   0 nuclei)
Geometric perturbations                   ...  NO (  32 nuclei)

Choice of electric origin   ... Center of mass
Position of electric origin ... ( -3.2291, -1.2508, -8.1774) 
Choice of magnetic origin   ... GIAO
Position of magnetic origin ... (  0.0000,  0.0000,  0.0000) 

Calculating integrals                     ... Electric Dipole (Length)     done (  0.0 sec)

Property integrals calculated in   0.0 sec

Maximum memory used throughout the entire PROPINT-calculation: 25.7 MB


-------------------------------------------------------------------------------
                          DFT DISPERSION CORRECTION                            
                                                                               
                              DFTD3 V3.1  Rev 1                                
                          USING Becke-Johnson damping                          
-------------------------------------------------------------------------------
The B97-3c composite method is recognized
Using three-body term ABC
[...]
 25:    436.39   0.003271   16.53  0.002339  ( 0.023376 -0.039469 -0.015317)
 26:    445.43   0.002605   13.17  0.001825  ( 0.011361 -0.041122  0.002296)
 27:    521.46   0.001009    5.10  0.000604  ( 0.017095 -0.017603 -0.001389)
 28:    534.39   0.004040   20.41  0.002359  (-0.026994 -0.038913 -0.010774)
 29:    560.38   0.003721   18.81  0.002072  ( 0.026159 -0.008144 -0.036355)
 30:    564.46   0.009159   46.28  0.005063  ( 0.027344  0.060451 -0.025716)
 31:    576.47   0.004932   24.92  0.002670  ( 0.003139 -0.047105  0.020997)
 32:    613.64   0.017662   89.25  0.008982  ( 0.069585  0.062770  0.014125)
 33:    644.51   0.013104   66.22  0.006345  (-0.023534  0.073866 -0.018294)
 34:    723.02   0.003696   18.68  0.001595  (-0.030639 -0.025476 -0.002767)
 35:    761.65   0.001763    8.91  0.000722  (-0.025876 -0.007221  0.000706)
 36:    796.73   0.003813   19.27  0.001493  (-0.025578  0.003631  0.028740)
 37:    813.12   0.013619   68.82  0.005227  (-0.063681  0.034167  0.001959)
 38:    823.99   0.005398   27.28  0.002044  ( 0.041980  0.003583 -0.016402)
 39:    879.98   0.000772    3.90  0.000274  (-0.005068 -0.003231 -0.015411)
 40:    894.02   0.000214    1.08  0.000075  (-0.007302  0.004203 -0.001969)
 41:    928.54   0.000164    0.83  0.000055  (-0.003962 -0.002624  0.005698)
 42:    935.46   0.002393   12.09  0.000798  (-0.009352  0.022561  0.014203)
 43:    959.70   0.000133    0.67  0.000043  (-0.003608  0.000110  0.005483)
 44:    988.75   0.000896    4.53  0.000283  (-0.014095 -0.006002 -0.006925)
 45:    993.09   0.002220   11.22  0.000698  ( 0.020821  0.012031 -0.010933)
 46:   1017.15   0.005196   26.26  0.001594  ( 0.033097  0.003196  0.022104)
 47:   1030.94   0.012746   64.41  0.003858  ( 0.029216  0.001769  0.054785)
 48:   1051.47   0.002475   12.51  0.000734  (-0.013597 -0.007620  0.022170)
 49:   1065.64   0.024480  123.71  0.007169  ( 0.022029  0.001502 -0.081738)
 50:   1094.18   0.002299   11.62  0.000656  (-0.006793 -0.013765 -0.020492)
 51:   1171.78   0.022085  111.61  0.005881  (-0.047831  0.019028  0.056847)
 52:   1176.40   0.002472   12.49  0.000656  (-0.017961 -0.007451  0.016664)
 53:   1193.87   0.005519   27.89  0.001443  (-0.035490  0.006606  0.011807)
 54:   1212.94   0.007587   38.34  0.001952  ( 0.044146 -0.001016 -0.001426)
 55:   1231.21   0.000667    3.37  0.000169  (-0.000062  0.010648 -0.007462)
 56:   1251.24   0.010067   50.88  0.002511  (-0.014578 -0.019626  0.043739)
 57:   1269.03   0.009358   47.29  0.002301  ( 0.036783 -0.001839  0.030736)
 58:   1296.12   0.001098    5.55  0.000264  (-0.007317 -0.008668  0.011644)
 59:   1298.45   0.000570    2.88  0.000137  (-0.007024 -0.009234  0.001548)
 60:   1322.04   0.000262    1.32  0.000062  ( 0.004457 -0.000414  0.006467)
 61:   1343.66   0.002175   10.99  0.000505  (-0.021566 -0.001450  0.006151)
 62:   1367.26   0.002881   14.56  0.000658  ( 0.015470  0.016546 -0.012018)
 63:   1373.67   0.004035   20.39  0.000917  ( 0.002141  0.008210  0.029064)
 64:   1397.52   0.002044   10.33  0.000456  ( 0.002410  0.004499  0.020745)
 65:   1408.71   0.004546   22.98  0.001007  (-0.002264 -0.003213  0.031491)
 66:   1412.94   0.001263    6.38  0.000279  ( 0.013152  0.006328  0.008124)
 67:   1437.05   0.003216   16.25  0.000698  (-0.022216  0.013822 -0.003721)
 68:   1458.86   0.015381   77.73  0.003290  ( 0.000342  0.014454 -0.055507)
 69:   1478.98   0.006305   31.86  0.001330  ( 0.022928  0.006126  0.027698)
 70:   1483.85   0.001016    5.14  0.000214  (-0.007714  0.010569 -0.006520)
 71:   1490.22   0.000706    3.57  0.000148  (-0.001418 -0.003998 -0.011398)
 72:   1496.90   0.000268    1.35  0.000056  (-0.000219 -0.003678  0.006501)
 73:   1508.05   0.000784    3.96  0.000162  ( 0.005391  0.010825 -0.004010)
 74:   1515.03   0.001132    5.72  0.000233  (-0.000812  0.005324 -0.014292)
 75:   1526.51   0.017190   86.87  0.003514  (-0.037707  0.036461 -0.027622)
 76:   1529.23   0.032358  163.53  0.006603  (-0.076399  0.020474 -0.018637)
 77:   1708.30   0.036985  186.90  0.006756  (-0.004951 -0.008269 -0.081629)
 78:   1757.56   0.068069  343.99  0.012086  (-0.068754  0.081820  0.025773)
 79:   2975.47   0.010848   54.82  0.001138  ( 0.006649 -0.027609  0.018201)
 80:   2994.99   0.003918   19.80  0.000408  ( 0.007086 -0.011199  0.015252)
 81:   2997.23   0.005111   25.83  0.000532  ( 0.008403  0.014448  0.015898)
 82:   3004.51   0.014988   75.75  0.001557  (-0.037140  0.008696 -0.010089)
 83:   3023.56   0.006858   34.66  0.000708  (-0.009510  0.023648 -0.007628)
 84:   3035.38   0.005657   28.59  0.000582  ( 0.018910 -0.009818  0.011295)
 85:   3054.29   0.003891   19.66  0.000398  (-0.003855 -0.019035  0.004517)
 86:   3059.22   0.004276   21.61  0.000436  (-0.016995  0.004229  0.011378)
 87:   3067.06   0.010371   52.41  0.001055  (-0.002678 -0.029673  0.012944)
 88:   3083.11   0.000432    2.19  0.000044  ( 0.003820 -0.004888  0.002299)
 89:   3097.65   0.004690   23.70  0.000473  (-0.010696 -0.008236 -0.017037)
 90:   3099.42   0.003086   15.60  0.000311  (-0.009001  0.007805  0.012993)
 91:   3120.61   0.001404    7.10  0.000140  (-0.008801  0.002682  0.007470)
 92:   3515.19   0.017169   86.76  0.001524  ( 0.003211 -0.034570 -0.017855)
 93:   3527.44   0.028016  141.58  0.002479  ( 0.032384  0.033159 -0.018173)
 94:   3645.32   0.062775  317.24  0.005374  (-0.070656  0.017502  0.008682)
 95:   3675.24   0.008739   44.16  0.000742  (-0.004309  0.014358 -0.022743)

* The epsilon (eps) is given for a Dirac delta lineshape.
** The dipole moment derivative (T) already includes vibrational overlap.

The first frequency considered to be a vibration is 6
The total number of vibrations considered is 90


--------------------------
THERMOCHEMISTRY AT 298.15K
--------------------------

Temperature         ...   298.15 K
Pressure            ...     1.00 atm
Total Mass          ...   219.24 AMU
Quasi RRHO          ...     True
Cut-Off Frequency   ...     1.00 cm^-1

Throughout the following assumptions are being made:
  (1) The electronic state is orbitally nondegenerate
  (2) There are no thermally accessible electronically excited states
  (3) Hindered rotations indicated by low frequency modes are not
      treated as such but are treated as vibrations and this may
      cause some error
  (4) All equations used are the standard statistical mechanics
      equations for an ideal gas
  (5) All vibrations are strictly harmonic

freq.      45.25  E(vib)   ...       0.53 
freq.      57.11  E(vib)   ...       0.51 
freq.      60.36  E(vib)   ...       0.51 
freq.      84.42  E(vib)   ...       0.48 
freq.     103.04  E(vib)   ...       0.46 
freq.     121.65  E(vib)   ...       0.44 
freq.     149.25  E(vib)   ...       0.40 
freq.     167.07  E(vib)   ...       0.39 
freq.     209.15  E(vib)   ...       0.34 
freq.     227.60  E(vib)   ...       0.33 
freq.     247.36  E(vib)   ...       0.31 
freq.     256.02  E(vib)   ...       0.30 
freq.     284.03  E(vib)   ...       0.28 
freq.     288.51  E(vib)   ...       0.27 
freq.     325.15  E(vib)   ...       0.24 
freq.     362.03  E(vib)   ...       0.22 
freq.     365.50  E(vib)   ...       0.22 
freq.     393.99  E(vib)   ...       0.20 
freq.     416.60  E(vib)   ...       0.18 
freq.     436.39  E(vib)   ...       0.17 
freq.     445.43  E(vib)   ...       0.17 
freq.     521.46  E(vib)   ...       0.13 
freq.     534.39  E(vib)   ...       0.13 
freq.     560.38  E(vib)   ...       0.11 
freq.     564.46  E(vib)   ...       0.11 
freq.     576.47  E(vib)   ...       0.11 
freq.     613.64  E(vib)   ...       0.10 
freq.     644.51  E(vib)   ...       0.09 
freq.     723.02  E(vib)   ...       0.07 
freq.     761.65  E(vib)   ...       0.06 
freq.     796.73  E(vib)   ...       0.05 
freq.     813.12  E(vib)   ...       0.05 
freq.     823.99  E(vib)   ...       0.05 
freq.     879.98  E(vib)   ...       0.04 
freq.     894.02  E(vib)   ...       0.03 
freq.     928.54  E(vib)   ...       0.03 
freq.     935.46  E(vib)   ...       0.03 
freq.     959.70  E(vib)   ...       0.03 
freq.     988.75  E(vib)   ...       0.02 
freq.     993.09  E(vib)   ...       0.02 
freq.    1017.15  E(vib)   ...       0.02 
freq.    1030.94  E(vib)   ...       0.02 
freq.    1051.47  E(vib)   ...       0.02 
freq.    1065.64  E(vib)   ...       0.02 
freq.    1094.18  E(vib)   ...       0.02 
freq.    1171.78  E(vib)   ...       0.01 
freq.    1176.40  E(vib)   ...       0.01 
freq.    1193.87  E(vib)   ...       0.01 
freq.    1212.94  E(vib)   ...       0.01 
freq.    1231.21  E(vib)   ...       0.01 
freq.    1251.24  E(vib)   ...       0.01 
freq.    1269.03  E(vib)   ...       0.01 
freq.    1296.12  E(vib)   ...       0.01 
freq.    1298.45  E(vib)   ...       0.01 
freq.    1322.04  E(vib)   ...       0.01 
freq.    1343.66  E(vib)   ...       0.01 
freq.    1367.26  E(vib)   ...       0.01 
freq.    1373.67  E(vib)   ...       0.01 
freq.    1397.52  E(vib)   ...       0.00 
freq.    1408.71  E(vib)   ...       0.00 
freq.    1412.94  E(vib)   ...       0.00 
freq.    1437.05  E(vib)   ...       0.00 
freq.    1458.86  E(vib)   ...       0.00 
freq.    1478.98  E(vib)   ...       0.00 
freq.    1483.85  E(vib)   ...       0.00 
freq.    1490.22  E(vib)   ...       0.00 
freq.    1496.90  E(vib)   ...       0.00 
freq.    1508.05  E(vib)   ...       0.00 
freq.    1515.03  E(vib)   ...       0.00 
freq.    1526.51  E(vib)   ...       0.00 
freq.    1529.23  E(vib)   ...       0.00 
freq.    1708.30  E(vib)   ...       0.00 
freq.    1757.56  E(vib)   ...       0.00 
freq.    2975.47  E(vib)   ...       0.00 
freq.    2994.99  E(vib)   ...       0.00 
freq.    2997.23  E(vib)   ...       0.00 
freq.    3004.51  E(vib)   ...       0.00 
freq.    3023.56  E(vib)   ...       0.00 
freq.    3035.38  E(vib)   ...       0.00 
freq.    3054.29  E(vib)   ...       0.00 
freq.    3059.22  E(vib)   ...       0.00 
freq.    3067.06  E(vib)   ...       0.00 
freq.    3083.11  E(vib)   ...       0.00 
freq.    3097.65  E(vib)   ...       0.00 
freq.    3099.42  E(vib)   ...       0.00 
freq.    3120.61  E(vib)   ...       0.00 
freq.    3515.19  E(vib)   ...       0.00 
freq.    3527.44  E(vib)   ...       0.00 
freq.    3645.32  E(vib)   ...       0.00 
freq.    3675.24  E(vib)   ...       0.00 

------------
INNER ENERGY
------------

The inner energy is: U= E(el) + E(ZPE) + E(vib) + E(rot) + E(trans)
    E(el)   - is the total energy from the electronic structure calculation
              = E(kin-el) + E(nuc-el) + E(el-el) + E(nuc-nuc)
    E(ZPE)  - the the zero temperature vibrational energy from the frequency calculation
    E(vib)  - the the finite temperature correction to E(ZPE) due to population
              of excited vibrational states
    E(rot)  - is the rotational thermal energy
    E(trans)- is the translational thermal energy

Summary of contributions to the inner energy U:
Electronic energy                ...   -783.77516838 Eh
Zero point energy                ...      0.26862273 Eh     168.56 kcal/mol
Thermal vibrational correction   ...      0.01345048 Eh       8.44 kcal/mol
Thermal rotational correction    ...      0.00141627 Eh       0.89 kcal/mol
Thermal translational correction ...      0.00141627 Eh       0.89 kcal/mol
-----------------------------------------------------------------------
Total thermal energy                   -783.49026263 Eh


Summary of corrections to the electronic energy:
(perhaps to be used in another calculation)
Total thermal correction                  0.01628302 Eh      10.22 kcal/mol
Non-thermal (ZPE) correction              0.26862273 Eh     168.56 kcal/mol
-----------------------------------------------------------------------
Total correction                          0.28490575 Eh     178.78 kcal/mol


--------
ENTHALPY
--------

The enthalpy is H = U + kB*T
                kB is Boltzmann's constant
Total thermal energy              ...   -783.49026263 Eh 
Thermal Enthalpy correction       ...      0.00094421 Eh       0.59 kcal/mol
-----------------------------------------------------------------------
Total Enthalpy                    ...   -783.48931842 Eh


Note: Only C1 symmetry has been detected, increase convergence thresholds 
      if your molecule has a higher symmetry. Symmetry factor of 1.0 is   
      used for the rotational entropy correction. 
 

Note: Rotational entropy computed according to Herzberg 
Infrared and Raman Spectra, Chapter V,1, Van Nostrand Reinhold, 1945 
Point Group:  C1, Symmetry Number:   1  
Rotational constants in cm-1:     0.033157     0.013634     0.012810 

Vibrational entropy computed according to the QRRHO of S. Grimme
Chem.Eur.J. 2012 18 9955 using a reference frequency of 100.0 cm-1


-------
ENTROPY
-------

The entropy contributions are T*S = T*(S(el)+S(vib)+S(rot)+S(trans))
     S(el)   - electronic entropy
     S(vib)  - vibrational entropy
     S(rot)  - rotational entropy
     S(trans)- translational entropy
The entropies will be listed as multiplied by the temperature to get
units of energy

Electronic entropy                ...      0.00000000 Eh      0.00 kcal/mol
Vibrational entropy               ...      0.02331925 Eh     14.63 kcal/mol
Rotational entropy                ...      0.01520385 Eh      9.54 kcal/mol
Translational entropy             ...      0.01998299 Eh     12.54 kcal/mol
-----------------------------------------------------------------------
Final entropy term                ...      0.05850609 Eh     36.71 kcal/mol

In case the symmetry of your molecule has not been determined correctly
or in case you have a reason to use a different symmetry number we print 
out the resulting rotational entropy values for sn=1,12:

 non-linear molecules -----------------------------------
|  sn= 1 | S(rot)=       0.01520385 Eh      9.54 kcal/mol|
|  sn= 2 | S(rot)=       0.01454939 Eh      9.13 kcal/mol|
|  sn= 3 | S(rot)=       0.01416656 Eh      8.89 kcal/mol|
|  sn= 4 | S(rot)=       0.01389494 Eh      8.72 kcal/mol|
|  sn= 5 | S(rot)=       0.01368425 Eh      8.59 kcal/mol|
|  sn= 6 | S(rot)=       0.01351211 Eh      8.48 kcal/mol|
|  sn= 7 | S(rot)=       0.01336656 Eh      8.39 kcal/mol|
|  sn= 8 | S(rot)=       0.01324048 Eh      8.31 kcal/mol|
|  sn= 9 | S(rot)=       0.01312927 Eh      8.24 kcal/mol|
|  sn=10 | S(rot)=       0.01302979 Eh      8.18 kcal/mol|
|  sn=11 | S(rot)=       0.01293980 Eh      8.12 kcal/mol|
|  sn=12 | S(rot)=       0.01285765 Eh      8.07 kcal/mol|
 linear molecules ---------------------------------------
|  Dinfh | S(rot)=       0.00944011 Eh      5.92 kcal/mol|
|  Cinfv | S(rot)=       0.01009456 Eh      6.33 kcal/mol|
 --------------------------------------------------------


-------------------
GIBBS FREE ENERGY
-------------------

The Gibbs free energy is G = H - T*S

Total enthalpy                    ...   -783.48931842 Eh 
Total entropy correction          ...     -0.05850609 Eh    -36.71 kcal/mol
-----------------------------------------------------------------------
Final Gibbs free energy         ...   -783.54782451 Eh

For completeness - the Gibbs free energy minus the electronic energy
G-E(el)                           ...      0.22734387 Eh    142.66 kcal/mol


Maximum memory used throughout the entire PROP-calculation: 99.4 MB

--------------------------------
SUGGESTED CITATIONS FOR THIS RUN
--------------------------------

Below you find a list of papers that are relevant to this ORCA run
We neither can nor want to force you to cite these papers, but we appreciate if you do
You receive ORCA, which is the product of decades of hard work by many enthusiastic individuals, for free
The only thing we kindly ask in return is that you cite our papers,
We deeply appreciate it, if you show your appreciation for ORCA by not just citing the generic ORCA reference.

Please note that relegating all ORCA citations to the supporting information does *not* help us.
SI sections are not indexed - citations you put there will not count into any citation statistics
But we need these citations in order to attract the funding resources that allow us to do what we are doing

Therefore, if you are a happy ORCA user, please consider citing a few of the papers listed below in the main body of your paper

In addition to the list printed below, the program has created the file m1_00_Vitamin_B5-GFN2_0001-B97-3C-TZ.bibtex that contains the list in bibtex format
You can import this file easily into all common literature databanks and citation aid programs


List of essential papers. We consider these as the minimum necessary citations

  1. Neese,F.
     Software update: the ORCA program system, version 5.0
     WIRES Comput. Molec. Sci., 2022 12(1)e1606
     doi.org/10.1002/wcms.1606

List of papers to cite with high priority. The work reported in these papers was absolutely
necessary for this run to complete.
Our perspective: the developers of density functionals and basis sets usually get cited in chemistry papers
Good! But without the algorithms to do something with them, the functionals or basis sets would not do anything.
Hence, in our opinion, the algorithm design and method developments papers are equally worthy of getting cited

  1. Neese,F.
     An improvement of the resolution of the identity approximation for the formation of the Coulomb matrix
     J. Comp. Chem., 2003 24(14)1740-1747
     doi.org/10.1002/jcc.10318
  2. Bykov,D.; Petrenko,T.; Izsak,R.; Kossmann,S.; Becker,U.; Valeev,E.; Neese,F.
     Efficient implementation of the analytic second derivatives of Hartree-Fock and hybrid DFT energies: a detailed analysis of different approximations
     Molec. Phys., 2015 113 1961-1977
     doi.org/10.1080/00268976.2015.1025114
  3. Neese,F.
     The SHARK Integral Generation and Digestion System
     J. Comp. Chem., 2022  1-16
     doi.org/10.1002/jcc.26942
  4. Grimme,S.; Antony,J.; Ehrlich,S.; Krieg,H.
     A consistent and accurate ab initio parametrization of density functional dispersion correction (DFT-D) for the 94 elements H-Pu
     J. Chem. Phys., 2010 132 154104
     doi.org/10.1063/1.3382344
  5. Grimme,S.; Ehrlich,S.; Goerigk,L.
     Effect of the damping function in dispersion corrected density functional theory
     J. Comput. Chem., 2011 32(7)1456-1465
     doi.org/10.1002/jcc.21759

List of suggested additional citations. These are papers that are important in the 'surrounding' of 
of this run, or papers that preceded the highly important papers. If you like your results we are grateful for a citation.

  1. Neese,F.
     The ORCA program system
     WIRES Comput. Molec. Sci., 2012 2(1)73-78
     doi.org/10.1002/wcms.81
  2. Neese,F.
     Software update: the ORCA program system, version 4.0
     WIRES Comput. Molec. Sci., 2018 8(1)1-6
     doi.org/10.1002/wcms.1327
  3. Neese,F.; Wennmohs,F.; Becker,U.; Riplinger,C.
     The ORCA quantum chemistry program package
     J. Chem. Phys., 2020 152 Art. No. L224108
     doi.org/10.1063/5.0004608

List of optional additional citations

  1. Neese,F.
     Approximate second-order SCF convergence for spin unrestricted wavefunctions
     Chem. Phys. Lett., 2000 325(1-3)93-98
     doi.org/10.1016/s0009-2614(00)00662-x

Timings for individual modules:

Sum of individual times          ...      347.407 sec (=   5.790 min)
Startup calculation              ...       38.732 sec (=   0.646 min)  11.1 %
SCF iterations                   ...       78.397 sec (=   1.307 min)  22.6 %
Property integrals               ...       80.973 sec (=   1.350 min)  23.3 %
SCF Response                     ...       66.599 sec (=   1.110 min)  19.2 %
Property calculations            ...       32.160 sec (=   0.536 min)   9.3 %
SCF Gradient evaluation          ...       50.454 sec (=   0.841 min)  14.5 %
Geometry relaxation              ...        0.091 sec (=   0.002 min)   0.0 %
                             ****ORCA TERMINATED NORMALLY****
TOTAL RUN TIME: 0 days 0 hours 5 minutes 50 seconds 104 msec
