
                                 *****************
                                 * O   R   C   A *
                                 *****************

                                            #,                                       
                                            ###                                      
                                            ####                                     
                                            #####                                    
                                            ######                                   
                                           ########,                                 
                                     ,,################,,,,,                         
                               ,,#################################,,                 
                          ,,##########################################,,             
                       ,#########################################, ''#####,          
                    ,#############################################,,   '####,        
                  ,##################################################,,,,####,       
                ,###########''''           ''''###############################       
              ,#####''   ,,,,##########,,,,          '''####'''          '####       
            ,##' ,,,,###########################,,,                        '##       
           ' ,,###''''                  '''############,,,                           
         ,,##''                                '''############,,,,        ,,,,,,###''
      ,#''                                            '''#######################'''  
     '                                                          ''''####''''         
             ,#######,   #######,   ,#######,      ##                                
            ,#'     '#,  ##    ##  ,#'     '#,    #''#        ,####,   ,####,        
            ##       ##  ##   ,#'  ##            #'  '#       #'       #'  '#        
            ##       ##  #######   ##           ,######,      #####,   #    #        
            '#,     ,#'  ##    ##  '#,     ,#' ,#      #,     #,   #   #,  ,#        
             '#######'   ##     ##  '#######'  #'      '#     '####' # '####'        



                #########################################################
                #                        -***-                          #
                #          Department of theory and spectroscopy        #
                #                                                       #
                #                      Frank Neese                      #
                #                                                       #
                #     Directorship, Architecture, Infrastructure        #
                #                    SHARK, DRIVERS                     #
                #        Core code/Algorithms in most modules           #
                #                                                       #
                #        Max Planck Institute fuer Kohlenforschung      #
                #                Kaiser Wilhelm Platz 1                 #
                #                 D-45470 Muelheim/Ruhr                 #
                #                      Germany                          #
                #                                                       #
                #                  All rights reserved                  #
                #                        -***-                          #
                #########################################################


                         Program Version 6.0.1  -  RELEASE   -


 With contributions from (in alphabetic order):
[Max-Planck-Institut fuer Kohlenforschung]                               
  Daniel Aravena         : Magnetic Suceptibility                        
  Michael Atanasov       : Ab Initio Ligand Field Theory (pilot matlab implementation)
  Alexander A. Auer      : GIAO ZORA, VPT2 properties, NMR spectrum      
  Ute Becker             : All parallelization in ORCA, NUMFREQ, NUMCALC 
  Giovanni Bistoni       : ED, misc. LED, open-shell LED, HFLD           
  Martin Brehm           : Molecular dynamics                            
  Dmytro Bykov           : pre 5.0 version of the SCF Hessian            
  Marcos Casanova-Páez   : Triplet and SCS-CIS(D). UHF-(DLPNO)-IP/EA/STEOM-CCSD. UHF-CVS-IP/STEOM-CCSD   
  Vijay G. Chilkuri      : MRCI spin determinant printing, contributions to CSF-ICE 
  Pauline Colinet        : FMM embedding                                 
  Dipayan Datta          : RHF DLPNO-CCSD density                        
  Achintya Kumar Dutta   : EOM-CC, STEOM-CC                              
  Nicolas Foglia         : Exact transition moments, OPA infrastructure, MCD improvements    
  Dmitry Ganyushin       : Spin-Orbit,Spin-Spin,Magnetic field MRCI      
  Miquel Garcia-Rates    : C-PCM and meta-GGA Hessian, CCSD/C-PCM, Gaussian charge scheme 
  Tiago L. C. Gouveia    : GS-ROHF, GS-ROCIS                             
  Yang Guo               : DLPNO-NEVPT2, F12-NEVPT2, CIM, IAO-localization        
  Andreas Hansen         : Spin unrestricted coupled pair/coupled cluster methods 
  Ingolf Harden          : AUTO-CI MPn and infrastructure                
  Benjamin Helmich-Paris : MC-RPA, TRAH-(SCF,CASSCF), AVAS, COSX integrals, SCF dyn. polar. 
  Lee Huntington         : MR-EOM, pCC                                   
  Robert Izsak           : Overlap fitted RIJCOSX, COSX-SCS-MP3, EOM     
  Riya Kayal             : Wick's Theorem for AUTO-CI, AUTO-CI UHF-CCSDT 
  Emily Kempfer          : AUTO-CI, RHF CISDT and CCSDT                  
  Christian Kollmar      : KDIIS, OOCD, Brueckner-CCSD(T), CCSD density, CASPT2, CASPT2-K, improved NEVPT2 
  Axel Koslowski         : Symmetry handling                             
  Simone Kossmann        : meta-GGA functionals, TD-DFT gradient, OOMP2, (MP2 Hessian; deprecated post 5.0) 
  Lucas Lang             : DCDCAS                                        
  Marvin Lechner         : AUTO-CI (C++ implementation), FIC-MRCC        
  Spencer Leger          : CASSCF response                               
  Dagmar Lenk            : GEPOL surface, SMD, ORCA-2-JSON               
  Dimitrios Liakos       : Extrapolation schemes; Compound Job, initial MDCI parallelization 
  Dimitrios Manganas     : Further ROCIS development; embedding schemes. LFT, Crystal Embedding 
  Dimitrios Pantazis     : SARC Basis sets                               
  Anastasios Papadopoulos: AUTO-CI, single reference methods and gradients 
  Taras Petrenko         : pre 6.0 DFT Hessian and TD-DFT gradient, (ASA, deprecated), ECA, 1-Electron XAS/XES, NRVS 
  Peter Pinski           : DLPNO-MP2, DLPNO-MP2 Gradient                 
  Christoph Reimann      : Effective Core Potentials                     
  Marius Retegan         : Local ZFS, SOC                                
  Christoph Riplinger    : Optimizer, TS searches, QM/MM, DLPNO-CCSD(T), (RO)-DLPNO pert. Triples 
  Michael Roemelt        : Original ROCIS implementation                 
  Masaaki Saitow         : Open-shell DLPNO-CCSD energy and density      
  Barbara Sandhoefer     : DKH picture change effects                    
  Kantharuban Sivalingam : CASSCF convergence/infrastructure, NEVPT2 and variants, FIC-MRCI 
  Bernardo de Souza      : ESD, SOC TD-DFT                               
  Georgi L. Stoychev     : AutoAux, RI-MP2 NMR, DLPNO-MP2 response, X2C  
  Van Anh Tran           : RI-MP2 g-tensors                              
  Willem Van den Heuvel  : Paramagnetic NMR                              
  Zikuan Wang            : NOTCH, Electric field optimization            
  Frank Wennmohs         : Technical directorship and infrastructure     
  Hang Xu                : AUTO-CI-Response properties                   
                                                                         
[FACCTs GmbH]                                                            
  Markus Bursch, Miquel Garcia-Rates, Christoph Riplinger, Bernardo de Souza, Georgi L. Stoychev 
                                                                 
  APM, Basis sets (HGBS, AHGBS, def-TZVP (Ac-Lr), def2-XVPD (La-Lu)), CI-OPT, improved COSX, DLPNO-Multilevel,           
  DOCKER, DRACO, updates on ESD, GOAT, IRC, LR-CPCM, MBIS, meta-GGA TD-DFT gradient, ML-optimized integration grids, 
  MM, NACMEs, nearIR, NEB, NEB-TS, NL-DFT gradient (VV10), 2- and 3-layer-ONIOM, interface openCOSMO-RS, QMMM,   
  Crystal-QMMM, SF, symmetry and pop. for TD-DFT, r2SCAN hybrids, SOLVATOR                                   
                                                                         
[Other institutions]                                                     
  V. Asgeirsson          : NEB                                           
  Christoph Bannwarth    : sTDA-DFT, sTD-DFT, PBEh-3c, B97-3c, D3        
  Sebastian Ehlert       : rSCAN, r2SCAN, r2SCAN-3c, D4, dhf basis sets  
  Marvin Friede          : D4 for Fr, Ra, Ac-Lr                          
  Lars Goerigk           : TD-DFT with DH, B97 family of functionals     
  Stefan Grimme          : VdW corrections, initial TS optimization, DFT functionals, gCP, sTDA/sTD-DF 
  Waldemar Hujo          : DFT-NL                                        
  H. Jonsson             : NEB                                           
  Holger Kruse           : gCP                                           
  Marcel Mueller         : wB97X-3c, vDZP basis set                      
  Hagen Neugebauer       : wr2SCAN                                       
  Tobias Risthaus        : range-separated hybrid DFT                    
  Lukas Wittmann         : regularized MP2, r2SCAN double-hybrids, wr2SCAN        
                                                                         
We gratefully acknowledge several colleagues who have allowed us to      
interface, adapt or use parts of their codes:                            
  Ed Valeev, F. Pavosevic, A. Kumar             : LibInt (2-el integral package), F12 methods 
  Garnet Chan, S. Sharma, J. Yang, R. Olivares  : DMRG                   
  Ulf Ekstrom                                   : XCFun DFT Library      
  Mihaly Kallay                                 : mrcc  (arbitrary order and MRCC methods)
  Frank Weinhold                                : gennbo (NPA and NBO analysis)           
  Simon Mueller                                 : openCOSMO-RS                            
  Christopher J. Cramer and Donald G. Truhlar   : smd solvation model                     
  S Lehtola, MJT Oliveira, MAL Marques          : LibXC Library                           
  Liviu Ungur et al                             : ANISO software                          


 Your calculation uses the libint2 library for the computation of 2-el integrals
 For citations please refer to: http://libint.valeyev.net

 Your ORCA version has been built with support for libXC version: 6.2.2
 For citations please refer to: https://libxc.gitlab.io

 This ORCA versions uses:
   CBLAS   interface :  Fast vector & matrix operations
   LAPACKE interface :  Fast linear algebra routines
   SCALAPACK package :  Parallel linear algebra routines
   Shared memory     :  Shared parallel matrices
   BLAS/LAPACK       :  OpenBLAS 0.3.27  USE64BITINT DYNAMIC_ARCH NO_AFFINITY Zen SINGLE_THREADED
        Core in use  :  Zen
   Copyright (c) 2011-2014, The OpenBLAS Project


NOTE: MaxCore=6000 MB was set to SCF,MP2,MDCI,CIPSI,MRCI and CIS
      => If you want to overwrite this, your respective input block should be placed after the MaxCore statement
Your calculation utilizes the atom-pairwise dispersion correction
with the Becke-Johnson damping scheme (D3BJ)


Your calculation employs the composite approach B97-3c by Grimme and coworkers.
For the correct reference, please check the publication list of the Grimme group:
http://www.thch.uni-bonn.de/tc/index.php?section=publikationen&subsection=grimme#2017
   

XCFun DFT library Copyright 2009-2010 Ulf Ekstrom and contributors.
See http://admol.org/xcfun for more information.
This is free software; see the source code for copying conditions.
There is ABSOLUTELY NO WARRANTY; not even for MERCHANTABILITY or FITNESS FOR A PARTICULAR PURPOSE.
For details see the documentation.
Scientific users of this library should cite U. Ekstrom, L. Visscher, R. Bast, A. J. Thorvaldsen and K. Ruud;
J.Chem.Theor.Comp. 2010, DOI: 10.1021/ct100117s
XCFun Version 0.99 

================================================================================

----- Orbital basis set information -----
Your calculation utilizes the basis: def2-mTZVP
----- AuxJ basis set information -----
Your calculation utilizes the basis: def2-mTZVP/J
================================================================================
                                        WARNINGS
                       Please study these warnings very carefully!
================================================================================


WARNING: Geometry Optimization
  ===> : Switching off AutoStart
         For restart on a previous wavefunction, please use MOREAD

================================================================================
                                       INPUT FILE
================================================================================
NAME = m1_00_Vitamin_C-GFN1_00-B97-3C-TZ.inp
|  1> %pal nprocs 16 end
|  2> %MaxCore 6000
|  3> # put your comments here
|  4> ! B97-3C  OPT  FREQ DEFGRID3 NOTRAH
|  5> %scf MaxIter 800 end
|  6> %output
|  7> Print [P_Hirshfeld] 1
|  8> end
|  9> %geom
| 10> MaxIter 3000
| 11>  TolE 1e-6 #TolE 5e-6 Energy change (a.u.)
| 12>  TolRMSG 3e-5 #TolRMSG 1e-4 RMS gradient (a.u.)
| 13>  TolMaxG 1e-4 #TolMaxG 3e-3 Max. element of gradient (a.u.)
| 14>  TolRMSD 2e-3 #TolRMSD 2e-3 RMS displacement (a.u.)
| 15>  TolMaxD 4e-3 #TolMaxD 4e-3 Max. displacement (a.u.)
| 16> end
| 17> * xyz 0 1
| 18>  O -2.29178204660826 -0.14945115350415 -2.23610768081580
| 19>  O -1.90003015159150 1.70994140367793 -0.08603966789892
| 20>  O 1.10017743967719 0.77583031469823 -1.57989940439181
| 21>  O -3.88595780850738 -0.09128005524306 0.05997441971760
| 22>  O -0.18790932979748 2.08040432596299 -4.07537604070653
| 23>  O -2.91947013184789 1.00278862088045 -4.09292821864926
| 24>  C -1.14908805844963 -0.20008160870325 -1.38459188498275
| 25>  C -1.51299860557523 0.37169256820884 0.01943454226892
| 26>  C -0.13701430340352 0.65752387903597 -2.09326686296883
| 27>  C -2.66235323632528 -0.43937988449002 0.65713191467294
| 28>  C -0.71721110423851 1.21860108400003 -3.16419277600323
| 29>  C -2.09340949208351 0.72701695958833 -3.26794502547229
| 30>  H -0.82669294345916 -1.24551449380908 -1.28803610496845
| 31>  H -0.60540409310111 0.31765424001451 0.63689063882256
| 32>  H -2.45938871799771 -1.51936494199479 0.57684180012828
| 33>  H -2.73978056294679 -0.17306277056861 1.71709768522328
| 34>  H -2.86110270285052 1.72782015590619 -0.24302949598575
| 35>  H 1.60927206124176 1.43151973415979 -2.08052435993386
| 36>  H -3.85895476683726 -0.29706799801497 -0.88899341260360
| 37>  H -0.87884944529823 2.30005962019466 -4.72178606545258
| 38> *
| 39> 
| 40> 
| 41> 
| 42> 
| 43>                          ****END OF INPUT****
================================================================================

                       *****************************
                       * Geometry Optimization Run *
                       *****************************

Geometry optimization settings:
Update method            Update   .... BFGS
Choice of coordinates    CoordSys .... (2022) Redundant Internals
Initial Hessian          InHess   .... Almloef's Model
Max. no of cycles        MaxIter  .... 3000

Convergence Tolerances:
Energy Change            TolE     ....  1.0000e-06 Eh
Max. Gradient            TolMAXG  ....  1.0000e-04 Eh/bohr
RMS Gradient             TolRMSG  ....  3.0000e-05 Eh/bohr
Max. Displacement        TolMAXD  ....  4.0000e-03 bohr
RMS Displacement         TolRMSD  ....  2.0000e-03 bohr
Strict Convergence                .... False

------------------------------------------------------------------------------
                        ORCA OPTIMIZATION COORDINATE SETUP
------------------------------------------------------------------------------

The optimization will be done in redundant internal coordinates (2022)
Making redundant internal coordinates   ...  (2022 redundants) done
Evaluating the initial hessian          ...  (Almloef) done
Evaluating the coordinates              ...  done
Calculating the B-matrix                .... done
Calculating the G-matrix                .... done
Diagonalizing the G-matrix              .... done
The first mode is                       ....   40
The number of degrees of freedom        ....   54

    -----------------------------------------------------------------
                    Redundant Internal Coordinates


    -----------------------------------------------------------------
         Definition                    Initial Value    Approx d2E/dq
    -----------------------------------------------------------------
      1. B(C   6,O   0)                  1.4260         0.490328   
      2. B(C   7,O   1)                  1.3971         0.545233   
      3. B(C   7,C   6)                  1.5591         0.335757   
      4. B(C   8,O   2)                  1.3447         0.660949   
      5. B(C   8,C   6)                  1.5040         0.411024   
      6. B(C   9,C   7)                  1.5445         0.354182   
      7. B(C   9,O   3)                  1.4053         0.528935   
      8. B(C  10,C   8)                  1.3410         0.747985   
      9. B(C  10,O   4)                  1.3613         0.621834   
     10. B(C  11,C  10)                  1.4650         0.474261   
     11. B(C  11,O   5)                  1.1996         1.126309   
     12. B(C  11,O   0)                  1.3683         0.606040   
     13. B(H  12,C   6)                  1.0983         0.349328   
     14. B(H  13,C   7)                  1.0990         0.348331   
     15. B(H  14,C   9)                  1.1018         0.344797   
     16. B(H  15,C   9)                  1.0956         0.352704   
     17. B(H  16,O   3)                  2.1098         0.007613   
     18. B(H  16,O   1)                  0.9740         0.493937   
     19. B(H  17,O   2)                  0.9694         0.502312   
     20. B(H  18,O   0)                  2.0718         0.008752   
     21. B(H  18,O   3)                  0.9714         0.498631   
     22. B(H  19,O   4)                  0.9713         0.498749   
     23. A(C   6,O   0,C  11)          110.9086         0.409200   
     24. A(C   7,O   1,H  16)          107.6446         0.358903   
     25. A(C   8,O   2,H  17)          110.2143         0.371995   
     26. A(C   9,O   3,H  18)          109.7813         0.357630   
     27. A(C  10,O   4,H  19)          108.1813         0.367665   
     28. A(O   0,C   6,C   8)          103.7464         0.384694   
     29. A(C   7,C   6,C   8)          111.8569         0.362657   
     30. A(O   0,C   6,H  12)          108.7555         0.335499   
     31. A(C   8,C   6,H  12)          112.7479         0.327815   
     32. A(O   0,C   6,C   7)          109.7368         0.371462   
     33. A(C   7,C   6,H  12)          109.7823         0.317129   
     34. A(C   6,C   7,C   9)          110.6669         0.353592   
     35. A(C   9,C   7,H  13)          110.9004         0.319755   
     36. A(C   6,C   7,H  13)          107.1670         0.316981   
     37. A(O   1,C   7,H  13)          108.5592         0.341329   
     38. A(O   1,C   7,C   6)          110.3635         0.378330   
     39. A(O   1,C   7,C   9)          109.1497         0.381850   
     40. A(O   2,C   8,C   6)          119.3016         0.405369   
     41. A(C   6,C   8,C  10)          108.8885         0.417052   
     42. A(O   2,C   8,C  10)          131.7699         0.451282   
     43. A(H  14,C   9,H  15)          108.7697         0.287929   
     44. A(O   3,C   9,H  15)          106.8187         0.340311   
     45. A(C   7,C   9,H  14)          110.3381         0.319223   
     46. A(O   3,C   9,H  14)          111.8521         0.339024   
     47. A(O   3,C   9,C   7)          110.0236         0.379845   
     48. A(C   7,C   9,H  15)          108.9279         0.320407   
     49. A(C   8,C  10,C  11)          108.8192         0.427851   
     50. A(O   4,C  10,C  11)          122.0234         0.411303   
     51. A(O   4,C  10,C   8)          129.1381         0.446315   
     52. A(O   0,C  11,O   5)          124.4740         0.475517   
     53. A(O   5,C  11,C  10)          128.2012         0.457685   
     54. A(O   0,C  11,C  10)          107.3204         0.409432   
     55. D(C   7,C   6,O   0,C  11)    113.9920         0.020591   
     56. D(C   8,C   6,O   0,C  11)     -5.6748         0.020591   
     57. D(H  12,C   6,O   0,C  11)   -125.9046         0.020591   
     58. D(C   9,C   7,C   6,H  12)    -60.2284         0.009149   
     59. D(O   1,C   7,C   6,C   8)     52.8959         0.009149   
     60. D(C   9,C   7,C   6,C   8)    173.8253         0.009149   
     61. D(C   9,C   7,O   1,H  16)    -32.7009         0.023672   
     62. D(H  13,C   7,O   1,H  16)   -153.6947         0.023672   
     63. D(C   6,C   7,O   1,H  16)     89.1294         0.023672   
     64. D(O   1,C   7,C   6,O   0)    -61.6814         0.009149   
     65. D(O   1,C   7,C   6,H  12)    178.8422         0.009149   
     66. D(C   9,C   7,C   6,O   0)     59.2479         0.009149   
     67. D(O   2,C   8,C   6,O   0)   -176.9042         0.012510   
     68. D(C  10,C   8,O   2,H  17)      3.7695         0.032376   
     69. D(C   6,C   8,O   2,H  17)   -173.6478         0.032376   
     70. D(C  10,C   8,C   6,C   7)   -113.0790         0.012510   
     71. D(C  10,C   8,C   6,O   0)      5.1315         0.012510   
     72. D(O   2,C   8,C   6,H  12)    -59.4201         0.012510   
     73. D(O   2,C   8,C   6,C   7)     64.8854         0.012510   
     74. D(H  14,C   9,C   7,H  13)    -71.1259         0.010088   
     75. D(H  14,C   9,C   7,O   1)    169.3187         0.010088   
     76. D(O   3,C   9,C   7,H  13)    164.9852         0.010088   
     77. D(O   3,C   9,C   7,C   6)    -76.2169         0.010088   
     78. D(O   3,C   9,C   7,O   1)     45.4298         0.010088   
     79. D(H  15,C   9,O   3,H  18)    179.0856         0.024116   
     80. D(H  14,C   9,C   7,C   6)     47.6719         0.010088   
     81. D(H  14,C   9,O   3,H  18)    -62.0076         0.024116   
     82. D(C   7,C   9,O   3,H  18)     60.9970         0.024116   
     83. D(O   4,C  10,C   8,O   2)      1.1874         0.039879   
     84. D(C  11,C  10,O   4,H  19)      2.2152         0.028382   
     85. D(C   8,C  10,O   4,H  19)   -179.5660         0.028382   
     86. D(C  11,C  10,C   8,C   6)     -2.7884         0.039879   
     87. D(C  11,C  10,C   8,O   2)    179.5919         0.039879   
     88. D(O   4,C  10,C   8,C   6)    178.8070         0.039879   
     89. D(O   5,C  11,C  10,C   8)    179.9840         0.015314   
     90. D(O   5,C  11,C  10,O   4)     -1.4755         0.015314   
     91. D(O   0,C  11,C  10,C   8)     -0.7541         0.015314   
     92. D(O   0,C  11,C  10,O   4)    177.7864         0.015314   
     93. D(C  10,C  11,O   0,C   6)      4.2201         0.029638   
     94. D(O   5,C  11,O   0,C   6)   -176.4835         0.029638   
    -----------------------------------------------------------------

Number of atoms                         .... 20
Number of degrees of freedom            .... 94


         *************************************************************
         *                GEOMETRY OPTIMIZATION CYCLE   1            *
         *************************************************************
---------------------------------
CARTESIAN COORDINATES (ANGSTROEM)
---------------------------------
  O     -2.291782   -0.149451   -2.236108
  O     -1.900030    1.709941   -0.086040
  O      1.100177    0.775830   -1.579899
  O     -3.885958   -0.091280    0.059974
  O     -0.187909    2.080404   -4.075376
  O     -2.919470    1.002789   -4.092928
  C     -1.149088   -0.200082   -1.384592
  C     -1.512999    0.371693    0.019435
  C     -0.137014    0.657524   -2.093267
  C     -2.662353   -0.439380    0.657132
  C     -0.717211    1.218601   -3.164193
  C     -2.093409    0.727017   -3.267945
  H     -0.826693   -1.245514   -1.288036
  H     -0.605404    0.317654    0.636891
  H     -2.459389   -1.519365    0.576842
  H     -2.739781   -0.173063    1.717098
  H     -2.861103    1.727820   -0.243029
  H      1.609272    1.431520   -2.080524
  H     -3.858955   -0.297068   -0.888993
  H     -0.878849    2.300060   -4.721786

----------------------------
CARTESIAN COORDINATES (A.U.)
----------------------------
  NO LB      ZA    FRAG     MASS         X           Y           Z
   0 O     8.0000    0    15.999   -4.330840   -0.282422   -4.225631
   1 O     8.0000    0    15.999   -3.590537    3.231321   -0.162591
   2 O     8.0000    0    15.999    2.079034    1.466107   -2.985577
   3 O     8.0000    0    15.999   -7.343396   -0.172494    0.113335
   4 O     8.0000    0    15.999   -0.355097    3.931394   -7.701345
   5 O     8.0000    0    15.999   -5.516999    1.894996   -7.734513
   6 C     6.0000    0    12.011   -2.171462   -0.378099   -2.616499
   7 C     6.0000    0    12.011   -2.859153    0.702397    0.036726
   8 C     6.0000    0    12.011   -0.258920    1.242540   -3.955701
   9 C     6.0000    0    12.011   -5.031118   -0.830308    1.241799
  10 C     6.0000    0    12.011   -1.355333    2.302822   -5.979458
  11 C     6.0000    0    12.011   -3.955971    1.373863   -6.175521
  12 H     1.0000    0     1.008   -1.562223   -2.353681   -2.434035
  13 H     1.0000    0     1.008   -1.144048    0.600280    1.203549
  14 H     1.0000    0     1.008   -4.647571   -2.871184    1.090073
  15 H     1.0000    0     1.008   -5.177435   -0.327041    3.244844
  16 H     1.0000    0     1.008   -5.406701    3.265107   -0.459259
  17 H     1.0000    0     1.008    3.041083    2.705180   -3.931621
  18 H     1.0000    0     1.008   -7.292368   -0.561377   -1.679954
  19 H     1.0000    0     1.008   -1.660785    4.346483   -8.922883

--------------------------------
INTERNAL COORDINATES (ANGSTROEM)
--------------------------------
 O      0   0   0     0.000000000000     0.00000000     0.00000000
 O      1   0   0     2.869425498096     0.00000000     0.00000000
 O      2   1   0     3.479285275682    67.79225234     0.00000000
 O      2   1   3     2.685074955446    60.33503965   213.85364638
 O      3   2   1     3.096527816596    82.77346764    61.71711378
 O      1   2   3     2.273638348495   108.73738522   260.48797916
 C      1   2   3     1.425970597215    57.73462937    34.40352818
 C      2   1   3     1.397078441698    58.24260599   289.64931999
 C      3   2   1     1.344688056537    52.71119662    18.70446778
 C      4   2   1     1.405339359005    62.95423001    93.83128959
 C      9   3   2     1.341013895841   131.76985502   116.09921079
 C      6   1   2     1.199593038811    29.74371603    67.28181805
 H      7   1   2     1.098267520272   108.75552614   148.47626268
 H      8   2   1     1.099045026902   108.55919162   146.14150555
 H     10   4   2     1.101820685333   111.85210669   213.84483358
 H     10   4   2     1.095649227998   106.81872942    94.93799851
 H      2   1   3     0.973974283381    75.90095236   168.11389339
 H      3   2   1     0.969397387355   119.53738609   112.58647811
 H      4   2   1     0.971399911689    93.92373271   343.59697916
 H      5   3   2     0.971335478393   158.04556800   317.09887965

---------------------------
INTERNAL COORDINATES (A.U.)
---------------------------
 O      0   0   0     0.000000000000     0.00000000     0.00000000
 O      1   0   0     5.422428353091     0.00000000     0.00000000
 O      2   1   0     6.574896312823    67.79225234     0.00000000
 O      2   1   3     5.074056314844    60.33503965   213.85364638
 O      3   2   1     5.851589539436    82.77346764    61.71711378
 O      1   2   3     4.296553806236   108.73738522   260.48797916
 C      1   2   3     2.694693903760    57.73462937    34.40352818
 C      2   1   3     2.640095642414    58.24260599   289.64931999
 C      3   2   1     2.541092162409    52.71119662    18.70446778
 C      4   2   1     2.655706513740    62.95423001    93.83128959
 C      9   3   2     2.534149004922   131.76985502   116.09921079
 C      6   1   2     2.266902315511    29.74371603    67.28181805
 H      7   1   2     2.075424835095   108.75552614   148.47626268
 H      8   2   1     2.076894109693   108.55919162   146.14150555
 H     10   4   2     2.082139343968   111.85210669   213.84483358
 H     10   4   2     2.070476979759   106.81872942    94.93799851
 H      2   1   3     1.840544657072    75.90095236   168.11389339
 H      3   2   1     1.831895577040   119.53738609   112.58647811
 H      4   2   1     1.835679799608    93.92373271   343.59697916
 H      5   3   2     1.835558038324   158.04556800   317.09887965

---------------------
BASIS SET INFORMATION
---------------------
There are 3 groups of distinct atoms

 Group   1 Type O   : 11s6p2d contracted to 5s3p2d pattern {62111/411/11}
 Group   2 Type C   : 11s6p1d contracted to 5s3p1d pattern {62111/411/1}
 Group   3 Type H   : 5s contracted to 3s pattern {311}

Atom   0O    basis set group =>   1
Atom   1O    basis set group =>   1
Atom   2O    basis set group =>   1
Atom   3O    basis set group =>   1
Atom   4O    basis set group =>   1
Atom   5O    basis set group =>   1
Atom   6C    basis set group =>   2
Atom   7C    basis set group =>   2
Atom   8C    basis set group =>   2
Atom   9C    basis set group =>   2
Atom  10C    basis set group =>   2
Atom  11C    basis set group =>   2
Atom  12H    basis set group =>   3
Atom  13H    basis set group =>   3
Atom  14H    basis set group =>   3
Atom  15H    basis set group =>   3
Atom  16H    basis set group =>   3
Atom  17H    basis set group =>   3
Atom  18H    basis set group =>   3
Atom  19H    basis set group =>   3
---------------------------------
AUXILIARY/J BASIS SET INFORMATION
---------------------------------
There are 3 groups of distinct atoms

 Group   1 Type O   : 8s3p3d contracted to 6s3p3d pattern {311111/111/111}
 Group   2 Type C   : 8s3p3d contracted to 6s3p3d pattern {311111/111/111}
 Group   3 Type H   : 5s2p contracted to 3s1p pattern {311/2}

Atom   0O    basis set group =>   1
Atom   1O    basis set group =>   1
Atom   2O    basis set group =>   1
Atom   3O    basis set group =>   1
Atom   4O    basis set group =>   1
Atom   5O    basis set group =>   1
Atom   6C    basis set group =>   2
Atom   7C    basis set group =>   2
Atom   8C    basis set group =>   2
Atom   9C    basis set group =>   2
Atom  10C    basis set group =>   2
Atom  11C    basis set group =>   2
Atom  12H    basis set group =>   3
Atom  13H    basis set group =>   3
Atom  14H    basis set group =>   3
Atom  15H    basis set group =>   3
Atom  16H    basis set group =>   3
Atom  17H    basis set group =>   3
Atom  18H    basis set group =>   3
Atom  19H    basis set group =>   3


           ************************************************************
           *        Program running with 16 parallel MPI-processes    *
           *              working on a common directory               *
           ************************************************************
------------------------------------------------------------------------------
                             ORCA STARTUP CALCULATIONS
                           -- RI-GTO INTEGRALS CHOSEN --
------------------------------------------------------------------------------
------------------------------------------------------------------------------
                   ___                                                        
                  /   \      - P O W E R E D   B Y -                         
                 /     \                                                     
                 |  |  |   _    _      __       _____    __    __             
                 |  |  |  | |  | |    /  \     |  _  \  |  |  /  |          
                  \  \/   | |  | |   /    \    | | | |  |  | /  /          
                 / \  \   | |__| |  /  /\  \   | |_| |  |  |/  /          
                |  |  |   |  __  | /  /__\  \  |    /   |      \           
                |  |  |   | |  | | |   __   |  |    \   |  |\   \          
                \     /   | |  | | |  |  |  |  | |\  \  |  | \   \       
                 \___/    |_|  |_| |__|  |__|  |_| \__\ |__|  \__/        
                                                                              
                      - O R C A' S   B I G   F R I E N D -                    
                                      &                                       
                       - I N T E G R A L  F E E D E R -                       
                                                                              
 v1 FN, 2020, v2 2021, v3 2022-2024                                           
------------------------------------------------------------------------------


----------------------
SHARK INTEGRAL PACKAGE
----------------------

Number of atoms                             ...     20
Number of basis functions                   ...    282
Number of shells                            ...    138
Maximum angular momentum                    ...      2
Integral batch strategy                     ... SHARK/LIBINT Hybrid
RI-J (if used) integral strategy            ... SPLIT-RIJ (Revised 2003 algorithm where possible)
Printlevel                                  ...      1
Contraction scheme used                     ... SEGMENTED contraction
Prescreening option                         ... SCHWARTZ
   Thresh                                   ... 2.500e-11
   Tcut                                     ... 2.500e-12
   Tpresel                                  ... 2.500e-12 
Coulomb Range Separation                    ... NOT USED
Exchange Range Separation                   ... NOT USED
Multipole approximations                    ... NOT USED
Finite Nucleus Model                        ... NOT USED
CABS basis                                  ... NOT available
Auxiliary Coulomb fitting basis             ... AVAILABLE
   # of basis functions in Aux-J            ...    408
   # of shells in Aux-J                     ...    176
   Maximum angular momentum in Aux-J        ...      2
Auxiliary J/K fitting basis                 ... NOT available
Auxiliary Correlation fitting basis         ... NOT available
Auxiliary 'external' fitting basis          ... NOT available

Checking pre-screening integrals            ... done (  0.0 sec) Dimension = 138
Check shell pair data                       ... done (  0.0 sec)
Shell pair information
Shell pair cut-off parameter TPreSel        ...   2.5e-12
Total number of shell pairs                 ...      9591
Shell pairs after pre-screening             ...      8413
Total number of primitive shell pairs       ...     34741
Primitive shell pairs kept                  ...     20889
          la=0 lb=0:   2911 shell pairs
          la=1 lb=0:   2727 shell pairs
          la=1 lb=1:    640 shell pairs
          la=2 lb=0:   1350 shell pairs
          la=2 lb=1:    619 shell pairs
          la=2 lb=2:    166 shell pairs

Calculating one electron integrals          ... done (  0.0 sec)
Calculating RI/J V-Matrix + Cholesky decomp.... done (  0.0 sec)
Calculating Nuclear repulsion               ... done (  0.0 sec) ENN=    776.085314618965 Eh

Diagonalization of the overlap matrix:
Smallest eigenvalue                        ... 3.073e-05
Time for diagonalization                   ...    0.006 sec
Threshold for overlap eigenvalues          ... 1.000e-07
Number of eigenvalues below threshold      ... 0
Time for construction of square roots      ...    0.003 sec
Total time needed                          ...    0.010 sec

-------------------
DFT GRID GENERATION
-------------------

General Integration Accuracy     IntAcc      ... 4.959
Radial Grid Type                 RadialGrid  ... OptM3 with GC (2021)
Angular Grid (max. ang.)         AngularGrid ... 6 (Lebedev-590)
Angular grid pruning method      GridPruning ... 4 (adaptive)
Weight generation scheme         WeightScheme... mBecke (2022)
Basis function cutoff            BFCut       ... 1.0000e-11
Integration weight cutoff        WCut        ... 1.0000e-14
Partially contracted basis set               ... off
Rotationally invariant grid construction     ... off
Angular grids for H and He will be reduced by one unit
Diffuse basis detected: some atoms will have their outermost
                        angular grid increased by 1.

Total number of grid points                  ...   244038
Total number of batches                      ...     3824
Average number of points per batch           ...       63
Average number of grid points per atom       ...    12202
Initializing property integral containers    ... done (  0.0 sec)

SHARK setup successfully completed in   2.0 seconds

Maximum memory used throughout the entire STARTUP-calculation: 54.7 MB


           ************************************************************
           *        Program running with 16 parallel MPI-processes    *
           *              working on a common directory               *
           ************************************************************
-------------------------------------------------------------------------------
                                 ORCA GUESS
                   Start orbitals & Density for SCF / CASSCF
-------------------------------------------------------------------------------

------------
SCF SETTINGS
------------
Hamiltonian:
 Density Functional     Method          .... DFT(GTOs)
 Exchange Functional    Exchange        .... B973C
 Correlation Functional Correlation     .... B973C
 Gradients option       PostSCFGGA      .... off
 RI-approximation to the Coulomb term is turned on
   Number of AuxJ basis functions       .... 408


General Settings:
 Integral files         IntName         .... m1_00_Vitamin_C-GFN1_00-B97-3C-TZ
 Hartree-Fock type      HFTyp           .... RHF
 Total Charge           Charge          ....    0
 Multiplicity           Mult            ....    1
 Number of Electrons    NEL             ....   92
 Basis Dimension        Dim             ....  282
 Nuclear Repulsion      ENuc            ....    776.0853146190 Eh

Convergence Acceleration:
 AO-DIIS                CNVDIIS         .... on
   Start iteration      DIISMaxIt       ....    12
   Startup error        DIISStart       ....  0.200000
   # of expansion vecs  DIISMaxEq       ....     5
   Bias factor          DIISBfac        ....   1.050
   Max. coefficient     DIISMaxC        ....  10.000
 MO-DIIS                CNVKDIIS        .... off
 Trust-Rad. Augm. Hess. CNVTRAH         .... off
 SOSCF                  CNVSOSCF        .... on
   Start iteration      SOSCFMaxIt      ....   150
   Startup grad/error   SOSCFStart      ....  0.003300
   Hessian update       SOSCFHessUp     .... L-BFGS
 Level Shifting         CNVShift        .... on
   Level shift para.    LevelShift      ....    0.2500
   Turn off err/grad.   ShiftErr        ....    0.0010
 Zerner damping         CNVZerner       .... off
 Static damping         CNVDamp         .... on
   Fraction old density DampFac         ....    0.7000
   Max. Damping (<1)    DampMax         ....    0.9800
   Min. Damping (>=0)   DampMin         ....    0.0000
   Turn off err/grad.   DampErr         ....    0.1000

SCF Procedure:
 Maximum # iterations   MaxIter         ....   800
 SCF integral mode      SCFMode         .... Direct
   Integral package                     .... SHARK and LIBINT hybrid scheme
 Reset frequency        DirectResetFreq ....    20
 Integral Threshold     Thresh          ....  2.500e-11 Eh
 Primitive CutOff       TCut            ....  2.500e-12 Eh

Convergence Tolerance:
 Convergence Check Mode ConvCheckMode   .... Total+1el-Energy
 Convergence forced     ConvForced      .... 0
 Energy Change          TolE            ....  1.000e-08 Eh
 1-El. energy change                    ....  1.000e-05 Eh
 Orbital Gradient       TolG            ....  1.000e-05
 Orbital Rotation angle TolX            ....  1.000e-05
 DIIS Error             TolErr          ....  5.000e-07

--------------------------------
INITIAL GUESS: MINIMAL BASIS EHT
--------------------------------
The minimal basis has 68 functions
EHT matrix was diagonalized
Basis set overlap was calculated now projecting the orbitals
Using GuessMode=FMatrix for the initial guess
C*T matrix was formed
Effective Fockian was calculated
Effective Fockian was diagonalized
Initial density was built
                      ------------------
                      INITIAL GUESS DONE
                      ------------------
             **** ENERGY FILE WAS UPDATED (m1_00_Vitamin_C-GFN1_00-B97-3C-TZ.en.tmp) ****
Finished Guess after   0.1 sec
Maximum memory used throughout the entire GUESS-calculation: 15.5 MB


           ************************************************************
           *        Program running with 16 parallel MPI-processes    *
           *              working on a common directory               *
           ************************************************************

-------------------------------------------------------------------------------------------
                                      ORCA LEAN-SCF
                              memory conserving SCF solver
-------------------------------------------------------------------------------------------

----------------------------------------D-I-I-S--------------------------------------------
Iteration    Energy (Eh)           Delta-E    RMSDP     MaxDP     DIISErr   Damp  Time(sec)
-------------------------------------------------------------------------------------------
               ***  Starting incremental Fock matrix formation  ***
    1    -681.9729775097555375     0.00e+00  7.18e-03  1.60e-01  4.48e-01  0.700   0.3
    2    -682.8778925270996751    -9.05e-01  6.09e-03  2.70e-01  3.22e-01  0.700   0.3
    3    -683.3093471922315985    -4.31e-01  3.57e-03  1.31e-01  2.27e-01  0.700   0.3
                               ***Turning on AO-DIIS***
    4    -683.6349707723154552    -3.26e-01  2.50e-03  1.15e-01  1.57e-01  0.700   0.3
    5    -683.8629733566469895    -2.28e-01  1.85e-03  9.77e-02  1.10e-01  0.700   0.3
    6    -684.0228911224430703    -1.60e-01  1.27e-03  5.80e-02  7.67e-02  0.700   0.3
    7    -684.1351097070373726    -1.12e-01  2.91e-03  1.00e-01  5.38e-02  0.000   0.3
    8    -684.3940462525833937    -2.59e-01  5.40e-04  3.04e-02  3.20e-02  0.000   0.3
    9    -684.3966702779389379    -2.62e-03  1.96e-04  9.19e-03  1.24e-02  0.000   0.3
   10    -684.3967399318189564    -6.97e-05  7.01e-05  2.52e-03  8.11e-03  0.000   0.3
                              *** Initializing SOSCF ***
---------------------------------------S-O-S-C-F--------------------------------------
Iteration    Energy (Eh)           Delta-E    RMSDP     MaxDP     MaxGrad    Time(sec)
--------------------------------------------------------------------------------------
   11    -684.3969227576274079    -1.83e-04  3.32e-05  2.52e-03  1.30e-03     0.3
               *** Restarting incremental Fock matrix formation ***
   12    -684.3969316548727875    -8.90e-06  3.32e-05  2.42e-03  1.03e-04     0.3
   13    -684.3969299547459286     1.70e-06  1.29e-05  4.95e-04  2.02e-04     0.3
   14    -684.3969321346073684    -2.18e-06  1.37e-05  9.17e-04  2.52e-05     0.3
   15    -684.3969320304079247     1.04e-07  3.45e-06  1.72e-04  6.23e-05     0.3
   16    -684.3969321507290715    -1.20e-07  5.42e-06  3.68e-04  6.32e-06     0.2
   17    -684.3969321410784232     9.65e-09  2.85e-06  1.68e-04  1.47e-05     0.2
                 **** Energy Check signals convergence ****

               *****************************************************
               *                     SUCCESS                       *
               *           SCF CONVERGED AFTER  17 CYCLES          *
               *****************************************************

             **** ENERGY FILE WAS UPDATED (m1_00_Vitamin_C-GFN1_00-B97-3C-TZ.en.tmp) ****

----------------
TOTAL SCF ENERGY
----------------

Total Energy       :       -684.39693214107842 Eh          -18623.38732 eV

Components:
Nuclear Repulsion  :        776.08531461896541 Eh           21118.35505 eV
Electronic Energy  :      -1460.48224676004384 Eh          -39741.74237 eV
One Electron Energy:      -2478.66459561496231 Eh          -67447.89263 eV
Two Electron Energy:       1018.18234885491847 Eh           27706.15027 eV

Virial components:
Potential Energy   :      -1366.25110950729913 Eh          -37177.58276 eV
Kinetic Energy     :        681.85417736622060 Eh           18554.19544 eV
Virial Ratio       :          2.00372917679361

DFT components:
N(Alpha)           :       46.000007384356 electrons
N(Beta)            :       46.000007384356 electrons
N(Total)           :       92.000014768711 electrons
E(XC)              :      -86.626327392397 Eh       

---------------
SCF CONVERGENCE
---------------

  Last Energy change         ...   -9.6506e-09  Tolerance :   1.0000e-08
  Last MAX-Density change    ...    1.6774e-04  Tolerance :   1.0000e-07
  Last RMS-Density change    ...    2.8490e-06  Tolerance :   5.0000e-09
  Last DIIS Error            ...    1.3004e-03  Tolerance :   5.0000e-07
  Last Orbital Gradient      ...    1.4664e-05  Tolerance :   1.0000e-05
  Last Orbital Rotation      ...    3.4031e-05  Tolerance :   1.0000e-05


----------------
ORBITAL ENERGIES
----------------

  NO   OCC          E(Eh)            E(eV) 
   0   2.0000     -18.815492      -511.9956 
   1   2.0000     -18.809822      -511.8413 
   2   2.0000     -18.797220      -511.4983 
   3   2.0000     -18.758458      -510.4436 
   4   2.0000     -18.753292      -510.3030 
   5   2.0000     -18.743896      -510.0474 
   6   2.0000     -10.025284      -272.8019 
   7   2.0000      -9.985094      -271.7082 
   8   2.0000      -9.979860      -271.5658 
   9   2.0000      -9.965728      -271.1812 
  10   2.0000      -9.964412      -271.1454 
  11   2.0000      -9.954219      -270.8681 
  12   2.0000      -1.046993       -28.4901 
  13   2.0000      -1.018698       -27.7202 
  14   2.0000      -0.996935       -27.1280 
  15   2.0000      -0.976068       -26.5602 
  16   2.0000      -0.962449       -26.1896 
  17   2.0000      -0.944245       -25.6942 
  18   2.0000      -0.751892       -20.4600 
  19   2.0000      -0.718959       -19.5639 
  20   2.0000      -0.657888       -17.9021 
  21   2.0000      -0.593304       -16.1446 
  22   2.0000      -0.585567       -15.9341 
  23   2.0000      -0.567593       -15.4450 
  24   2.0000      -0.518820       -14.1178 
  25   2.0000      -0.499665       -13.5966 
  26   2.0000      -0.491734       -13.3808 
  27   2.0000      -0.472380       -12.8541 
  28   2.0000      -0.448620       -12.2076 
  29   2.0000      -0.432924       -11.7805 
  30   2.0000      -0.420104       -11.4316 
  31   2.0000      -0.405892       -11.0449 
  32   2.0000      -0.391248       -10.6464 
  33   2.0000      -0.384907       -10.4739 
  34   2.0000      -0.380132       -10.3439 
  35   2.0000      -0.375911       -10.2291 
  36   2.0000      -0.359738        -9.7890 
  37   2.0000      -0.338373        -9.2076 
  38   2.0000      -0.332186        -9.0392 
  39   2.0000      -0.314968        -8.5707 
  40   2.0000      -0.292540        -7.9604 
  41   2.0000      -0.285007        -7.7554 
  42   2.0000      -0.257477        -7.0063 
  43   2.0000      -0.253162        -6.8889 
  44   2.0000      -0.235180        -6.3996 
  45   2.0000      -0.206723        -5.6252 
  46   0.0000      -0.062319        -1.6958 
  47   0.0000      -0.015941        -0.4338 
  48   0.0000       0.009618         0.2617 
  49   0.0000       0.023237         0.6323 
  50   0.0000       0.036147         0.9836 
  51   0.0000       0.045116         1.2277 
  52   0.0000       0.060345         1.6421 
  53   0.0000       0.067197         1.8285 
  54   0.0000       0.073714         2.0058 
  55   0.0000       0.083594         2.2747 
  56   0.0000       0.099937         2.7194 
*Only the first 10 virtual orbitals were printed.

                    ********************************
                    * MULLIKEN POPULATION ANALYSIS *
                    ********************************

-----------------------
MULLIKEN ATOMIC CHARGES
-----------------------
   0 O :   -0.302031
   1 O :   -0.558255
   2 O :   -0.552209
   3 O :   -0.598763
   4 O :   -0.561394
   5 O :   -0.372804
   6 C :   -0.102739
   7 C :    0.033571
   8 C :    0.232302
   9 C :   -0.168991
  10 C :    0.122527
  11 C :    0.328337
  12 H :    0.198572
  13 H :    0.192128
  14 H :    0.157924
  15 H :    0.179117
  16 H :    0.432811
  17 H :    0.454372
  18 H :    0.434536
  19 H :    0.450988
Sum of atomic charges:   -0.0000000

--------------------------------
MULLIKEN REDUCED ORBITAL CHARGES
--------------------------------
  0 O s       :     3.728375  s :     3.728375
      pz      :     1.376703  p :     4.513498
      px      :     1.528142
      py      :     1.608653
      dz2     :     0.002684  d :     0.060159
      dxz     :     0.030496
      dyz     :     0.007204
      dx2y2   :     0.014973
      dxy     :     0.004802

  1 O s       :     3.814135  s :     3.814135
      pz      :     1.869199  p :     4.716538
      px      :     1.437358
      py      :     1.409981
      dz2     :     0.004057  d :     0.027582
      dxz     :     0.014074
      dyz     :     0.000181
      dx2y2   :     0.015010
      dxy     :    -0.005741

  2 O s       :     3.789600  s :     3.789600
      pz      :     1.708880  p :     4.710926
      px      :     1.349148
      py      :     1.652897
      dz2     :     0.006546  d :     0.051683
      dxz     :     0.014938
      dyz     :     0.010121
      dx2y2   :     0.009800
      dxy     :     0.010277

  3 O s       :     3.814448  s :     3.814448
      pz      :     1.392103  p :     4.754108
      px      :     1.523260
      py      :     1.838745
      dz2     :     0.014631  d :     0.030206
      dxz     :     0.001295
      dyz     :     0.005545
      dx2y2   :     0.005469
      dxy     :     0.003266

  4 O s       :     3.785893  s :     3.785893
      pz      :     1.452089  p :     4.727943
      px      :     1.629927
      py      :     1.645927
      dz2     :     0.007329  d :     0.047558
      dxz     :     0.014936
      dyz     :     0.007134
      dx2y2   :     0.007217
      dxy     :     0.010942

  5 O s       :     3.841788  s :     3.841788
      pz      :     1.431556  p :     4.495475
      px      :     1.519264
      py      :     1.544655
      dz2     :     0.005190  d :     0.035542
      dxz     :     0.013431
      dyz     :     0.004991
      dx2y2   :     0.006008
      dxy     :     0.005922

  6 C s       :     3.092806  s :     3.092806
      pz      :     0.961303  p :     2.941386
      px      :     0.851280
      py      :     1.128804
      dz2     :     0.014192  d :     0.068547
      dxz     :     0.018801
      dyz     :     0.009152
      dx2y2   :     0.013478
      dxy     :     0.012924

  7 C s       :     3.063646  s :     3.063646
      pz      :     1.004324  p :     2.831895
      px      :     1.070997
      py      :     0.756574
      dz2     :     0.010428  d :     0.070888
      dxz     :     0.012999
      dyz     :     0.017622
      dx2y2   :     0.016683
      dxy     :     0.013156

  8 C s       :     3.118881  s :     3.118881
      pz      :     0.889670  p :     2.576623
      px      :     0.728125
      py      :     0.958827
      dz2     :     0.014606  d :     0.072195
      dxz     :     0.019834
      dyz     :     0.008141
      dx2y2   :     0.012326
      dxy     :     0.017287

  9 C s       :     3.225611  s :     3.225611
      pz      :     1.038383  p :     2.878557
      px      :     0.784741
      py      :     1.055433
      dz2     :     0.016405  d :     0.064823
      dxz     :     0.011581
      dyz     :     0.004745
      dx2y2   :     0.017474
      dxy     :     0.014618

 10 C s       :     3.046438  s :     3.046438
      pz      :     0.876655  p :     2.760347
      px      :     0.904480
      py      :     0.979213
      dz2     :     0.019830  d :     0.070687
      dxz     :     0.013644
      dyz     :     0.012139
      dx2y2   :     0.013874
      dxy     :     0.011200

 11 C s       :     3.021525  s :     3.021525
      pz      :     0.800712  p :     2.527746
      px      :     0.887490
      py      :     0.839545
      dz2     :     0.033054  d :     0.122391
      dxz     :     0.020577
      dyz     :     0.025123
      dx2y2   :     0.024603
      dxy     :     0.019034

 12 H s       :     0.801428  s :     0.801428

 13 H s       :     0.807872  s :     0.807872

 14 H s       :     0.842076  s :     0.842076

 15 H s       :     0.820883  s :     0.820883

 16 H s       :     0.567189  s :     0.567189

 17 H s       :     0.545628  s :     0.545628

 18 H s       :     0.565464  s :     0.565464

 19 H s       :     0.549012  s :     0.549012



                     *******************************
                     * LOEWDIN POPULATION ANALYSIS *
                     *******************************

----------------------
LOEWDIN ATOMIC CHARGES
----------------------
   0 O :   -0.633961
   1 O :   -0.683975
   2 O :   -0.541066
   3 O :   -0.713196
   4 O :   -0.572676
   5 O :   -0.370314
   6 C :    0.171752
   7 C :    0.122720
   8 C :    0.261076
   9 C :    0.051384
  10 C :    0.223010
  11 C :    0.397216
  12 H :    0.202754
  13 H :    0.196078
  14 H :    0.168233
  15 H :    0.189008
  16 H :    0.377735
  17 H :    0.389979
  18 H :    0.374718
  19 H :    0.389524

-------------------------------
LOEWDIN REDUCED ORBITAL CHARGES
-------------------------------
  0 O s       :     3.451667  s :     3.451667
      pz      :     1.425303  p :     4.613817
      px      :     1.557571
      py      :     1.630944
      dz2     :     0.119641  d :     0.568477
      dxz     :     0.149505
      dyz     :     0.108008
      dx2y2   :     0.097660
      dxy     :     0.093663

  1 O s       :     3.533053  s :     3.533053
      pz      :     1.845418  p :     4.802061
      px      :     1.458279
      py      :     1.498364
      dz2     :     0.045822  d :     0.348860
      dxz     :     0.036629
      dyz     :     0.074862
      dx2y2   :     0.102355
      dxy     :     0.089192

  2 O s       :     3.512126  s :     3.512126
      pz      :     1.691492  p :     4.754983
      px      :     1.412873
      py      :     1.650618
      dz2     :     0.040347  d :     0.273956
      dxz     :     0.077087
      dyz     :     0.026096
      dx2y2   :     0.055247
      dxy     :     0.075180

  3 O s       :     3.541898  s :     3.541898
      pz      :     1.432090  p :     4.825141
      px      :     1.570357
      py      :     1.822694
      dz2     :     0.091193  d :     0.346157
      dxz     :     0.081033
      dyz     :     0.023852
      dx2y2   :     0.070686
      dxy     :     0.079394

  4 O s       :     3.519607  s :     3.519607
      pz      :     1.486145  p :     4.781005
      px      :     1.626699
      py      :     1.668161
      dz2     :     0.060942  d :     0.272064
      dxz     :     0.065064
      dyz     :     0.052645
      dx2y2   :     0.049503
      dxy     :     0.043910

  5 O s       :     3.527884  s :     3.527884
      pz      :     1.502412  p :     4.616359
      px      :     1.580599
      py      :     1.533348
      dz2     :     0.048690  d :     0.226071
      dxz     :     0.062580
      dyz     :     0.040376
      dx2y2   :     0.040987
      dxy     :     0.033438

  6 C s       :     2.814117  s :     2.814117
      pz      :     0.972762  p :     2.879524
      px      :     0.864907
      py      :     1.041855
      dz2     :     0.028239  d :     0.134607
      dxz     :     0.039354
      dyz     :     0.016333
      dx2y2   :     0.025881
      dxy     :     0.024800

  7 C s       :     2.823988  s :     2.823988
      pz      :     0.993752  p :     2.909575
      px      :     1.024019
      py      :     0.891804
      dz2     :     0.021122  d :     0.143717
      dxz     :     0.023560
      dyz     :     0.036199
      dx2y2   :     0.034629
      dxy     :     0.028206

  8 C s       :     2.760513  s :     2.760513
      pz      :     0.979159  p :     2.820021
      px      :     0.882503
      py      :     0.958359
      dz2     :     0.029271  d :     0.158390
      dxz     :     0.047751
      dyz     :     0.016227
      dx2y2   :     0.029171
      dxy     :     0.035971

  9 C s       :     2.862841  s :     2.862841
      pz      :     1.022975  p :     2.957528
      px      :     0.896002
      py      :     1.038551
      dz2     :     0.030396  d :     0.128248
      dxz     :     0.024747
      dyz     :     0.007421
      dx2y2   :     0.035165
      dxy     :     0.030518

 10 C s       :     2.755227  s :     2.755227
      pz      :     0.952742  p :     2.867129
      px      :     0.969412
      py      :     0.944974
      dz2     :     0.040450  d :     0.154635
      dxz     :     0.030674
      dyz     :     0.029458
      dx2y2   :     0.028009
      dxy     :     0.026044

 11 C s       :     2.727169  s :     2.727169
      pz      :     0.855491  p :     2.604062
      px      :     0.947405
      py      :     0.801165
      dz2     :     0.069305  d :     0.271554
      dxz     :     0.049789
      dyz     :     0.061104
      dx2y2   :     0.053007
      dxy     :     0.038348

 12 H s       :     0.797246  s :     0.797246

 13 H s       :     0.803922  s :     0.803922

 14 H s       :     0.831767  s :     0.831767

 15 H s       :     0.810992  s :     0.810992

 16 H s       :     0.622265  s :     0.622265

 17 H s       :     0.610021  s :     0.610021

 18 H s       :     0.625282  s :     0.625282

 19 H s       :     0.610476  s :     0.610476



                      *****************************
                      * MAYER POPULATION ANALYSIS *
                      *****************************

  NA   - Mulliken gross atomic population
  ZA   - Total nuclear charge
  QA   - Mulliken gross atomic charge
  VA   - Mayer's total valence
  BVA  - Mayer's bonded valence
  FA   - Mayer's free valence

  ATOM       NA         ZA         QA         VA         BVA        FA
  0 O      8.3020     8.0000    -0.3020     2.0882     2.0882    -0.0000
  1 O      8.5583     8.0000    -0.5583     1.8198     1.8198    -0.0000
  2 O      8.5522     8.0000    -0.5522     2.0405     2.0405    -0.0000
  3 O      8.5988     8.0000    -0.5988     1.7822     1.7822    -0.0000
  4 O      8.5614     8.0000    -0.5614     1.9871     1.9871    -0.0000
  5 O      8.3728     8.0000    -0.3728     2.2154     2.2154    -0.0000
  6 C      6.1027     6.0000    -0.1027     3.8220     3.8220    -0.0000
  7 C      5.9664     6.0000     0.0336     3.5552     3.5552     0.0000
  8 C      5.7677     6.0000     0.2323     4.0234     4.0234    -0.0000
  9 C      6.1690     6.0000    -0.1690     3.8409     3.8409     0.0000
 10 C      5.8775     6.0000     0.1225     3.8000     3.8000    -0.0000
 11 C      5.6717     6.0000     0.3283     4.0148     4.0148    -0.0000
 12 H      0.8014     1.0000     0.1986     0.9151     0.9151    -0.0000
 13 H      0.8079     1.0000     0.1921     0.9444     0.9444    -0.0000
 14 H      0.8421     1.0000     0.1579     0.9376     0.9376     0.0000
 15 H      0.8209     1.0000     0.1791     0.9450     0.9450    -0.0000
 16 H      0.5672     1.0000     0.4328     0.8126     0.8126     0.0000
 17 H      0.5456     1.0000     0.4544     0.7694     0.7694    -0.0000
 18 H      0.5655     1.0000     0.4345     0.8104     0.8104    -0.0000
 19 H      0.5490     1.0000     0.4510     0.7807     0.7807    -0.0000

  Mayer bond orders larger than 0.100000
B(  0-O ,  6-C ) :   1.0024 B(  0-O , 11-C ) :   0.9842 B(  1-O ,  7-C ) :   1.0677 
B(  1-O , 16-H ) :   0.7243 B(  2-O ,  8-C ) :   1.1461 B(  2-O , 17-H ) :   0.7418 
B(  3-O ,  7-C ) :  -0.1118 B(  3-O ,  9-C ) :   1.0443 B(  3-O , 18-H ) :   0.7341 
B(  4-O , 10-C ) :   1.1419 B(  4-O , 19-H ) :   0.7281 B(  5-O , 11-C ) :   2.0559 
B(  6-C ,  7-C ) :   0.8766 B(  6-C ,  8-C ) :   0.9786 B(  6-C , 12-H ) :   0.8794 
B(  7-C ,  9-C ) :   0.9122 B(  7-C , 13-H ) :   0.8990 B(  8-C , 10-C ) :   1.6437 
B(  9-C , 14-H ) :   0.9506 B(  9-C , 15-H ) :   0.9433 B( 10-C , 11-C ) :   0.9185 



------------------
HIRSHFELD ANALYSIS
------------------

Total integrated alpha density =     46.000007384
Total integrated beta density  =     46.000007384

  ATOM     CHARGE      SPIN    
   0 O   -0.122455    0.000000
   1 O   -0.237879    0.000000
   2 O   -0.165392    0.000000
   3 O   -0.225943    0.000000
   4 O   -0.197767    0.000000
   5 O   -0.283050    0.000000
   6 C    0.059642    0.000000
   7 C    0.054412    0.000000
   8 C    0.063836    0.000000
   9 C    0.031533    0.000000
  10 C    0.022097    0.000000
  11 C    0.179890    0.000000
  12 H    0.047890    0.000000
  13 H    0.043397    0.000000
  14 H    0.027048    0.000000
  15 H    0.042888    0.000000
  16 H    0.141985    0.000000
  17 H    0.195418    0.000000
  18 H    0.143474    0.000000
  19 H    0.178962    0.000000

  TOTAL  -0.000015    0.000000

-------
TIMINGS
-------

Total SCF time: 0 days 0 hours 0 min 5 sec 

Total time                  ....       5.533 sec
Sum of individual times     ....       5.453 sec  ( 98.6%)

SCF preparation             ....       0.143 sec  (  2.6%)
Fock matrix formation       ....       4.461 sec  ( 80.6%)
  Startup                   ....       0.014 sec  (  0.3% of F)
  Split-RI-J                ....       0.664 sec  ( 14.9% of F)
  XC integration            ....       3.548 sec  ( 79.5% of F)
    XC Preparation          ....       0.000 sec  (  0.0% of XC)
    Basis function eval.    ....       0.827 sec  ( 23.3% of XC)
    Density eval.           ....       0.736 sec  ( 20.7% of XC)
    XC-Functional eval.     ....       0.098 sec  (  2.8% of XC)
    XC-Potential eval.      ....       0.771 sec  ( 21.7% of XC)
Diagonalization             ....       0.000 sec  (  0.0%)
Density matrix formation    ....       0.045 sec  (  0.8%)
Total Energy calculation    ....       0.026 sec  (  0.5%)
Population analysis         ....       0.390 sec  (  7.0%)
Orbital Transformation      ....       0.033 sec  (  0.6%)
Orbital Orthonormalization  ....       0.000 sec  (  0.0%)
DIIS solution               ....       0.271 sec  (  4.9%)
SOSCF solution              ....       0.085 sec  (  1.5%)
Finished LeanSCF after   5.6 sec

Maximum memory used throughout the entire LEANSCF-calculation: 40.1 MB


           ************************************************************
           *        Program running with 16 parallel MPI-processes    *
           *              working on a common directory               *
           ************************************************************

------------------------------------------------------------------------------
                         ORCA PROPERTY INTEGRAL CALCULATIONS
------------------------------------------------------------------------------

GBWName                                   ... m1_00_Vitamin_C-GFN1_00-B97-3C-TZ.gbw
Number of atoms                           ...     20
Number of basis functions                 ...    282
Max core memory                           ...   6000 MB

Dipole integrals                          ... YES
Quadrupole integrals                      ...  NO
Linear momentum integrals                 ...  NO
Angular momentum integrals                ...  NO
Higher moments length integrals           ...  NO
Higher moments velocity integrals         ...  NO
Kinetic energy integrals                  ...  NO
GIAO right hand sides                     ...  NO
GIAO dipole derivative integrals          ...  NO
SOC integrals                             ...  NO
EPR diamagnetic integrals (GIAO)          ...  NO
EPR gauge integrals                       ...  NO
Field gradient integrals                  ...  NO (   0 nuclei)
Spin-dipole/Fermi contact integrals       ...  NO (   0 nuclei)
Contact density integrals                 ...  NO (   0 nuclei)
Nucleus-orbit integrals                   ...  NO (   0 nuclei)
Geometric perturbations                   ...  NO (  20 nuclei)

Choice of electric origin   ... Center of mass
Position of electric origin ... ( -2.9337,  1.2431, -3.3197) 
Choice of magnetic origin   ... GIAO
Position of magnetic origin ... (  0.0000,  0.0000,  0.0000) 

Calculating integrals                     ... Electric Dipole (Length)     done (  0.0 sec)

Property integrals calculated in   0.0 sec

Maximum memory used throughout the entire PROPINT-calculation: 16.0 MB


-------------------------------------------------------------------------------
                          DFT DISPERSION CORRECTION                            
                                                                               
                              DFTD3 V3.1  Rev 1                                
                          USING Becke-Johnson damping                          
-------------------------------------------------------------------------------
The B97-3c composite method is recognized
Using three-body term ABC
Active option DFTDOPT                   ...         4   

molecular C6(AA) [au] = 3736.071437 


            DFT-D V3
 parameters
 s6 scaling factor         :     1.0000 
 a1 scaling factor         :     0.3700 
 s8 scaling factor         :     1.5000 
 a2 scaling factor         :     4.1000 
 Damping factor alpha9(ATM):    16.0000 
 ad hoc parameters k1-k3   :    16.0000     1.3333    -4.0000 

 Edisp/kcal,au: -28.268851721209  -0.045049277938 
 E6   /kcal   : -14.523361113 
 E8   /kcal   : -13.803648816 
 E6(ABC)      :   0.058158208 
 % E8         :  48.829888643 
 % E6(ABC)    :  -0.205732474 

-------------------------   ----------------
Dispersion correction           -0.045049278
-------------------------   ----------------

------------------   -----------------
SRB correction            -0.057103870
------------------   -----------------

-------------------------   --------------------
FINAL SINGLE POINT ENERGY      -684.499085289216
-------------------------   --------------------



           ************************************************************
           *        Program running with 16 parallel MPI-processes    *
           *              working on a common directory               *
           ************************************************************
------------------------------------------------------------------------------
                         ORCA SCF GRADIENT CALCULATION
------------------------------------------------------------------------------

Nuc. rep. gradient        (SHARK) ... done (  0.0 sec)
HCore & Overlap gradient  (SHARK) ... done (  0.0 sec)
Split-RIJ-J gradient      (SHARK) ... done (  0.1 sec)
XC gradient                       ... done (  1.8 sec)
Dispersion correction             ... done (  0.1 sec)

-------------------
DISPERSION GRADIENT
-------------------

   1   O   :   -0.000298319   -0.000416757   -0.000679287
   2   O   :   -0.000122442    0.000917449    0.000769115
   3   O   :    0.001008467    0.000067697    0.000063886
   4   O   :   -0.000814405   -0.000160451    0.000375192
   5   O   :    0.000279814    0.000500607   -0.000593998
   6   O   :   -0.000701919    0.000042325   -0.000623242
   7   C   :    0.000452556   -0.000509940   -0.000097310
   8   C   :    0.000018561    0.000004202    0.000951519
   9   C   :    0.000936868   -0.000081158   -0.000283963
  10   C   :   -0.000421508   -0.000308413    0.000774937
  11   C   :    0.000268347    0.000335890   -0.000897629
  12   C   :   -0.000462317    0.000018951   -0.001114912
  13   H   :    0.000264035   -0.000636196   -0.000029018
  14   H   :    0.000295009    0.000033154    0.000527262
  15   H   :   -0.000149265   -0.000419863    0.000339627
  16   H   :   -0.000132962   -0.000125175    0.000434255
  17   H   :   -0.000332254    0.000562541    0.000304380
  18   H   :    0.000481748    0.000104500    0.000073515
  19   H   :   -0.000660965   -0.000205646    0.000038595
  20   H   :    0.000090951    0.000276285   -0.000332925

Difference to translation invariance:
           :    0.0000000000    0.0000000000    0.0000000000

Difference to rotation invariance:
           :    0.0000000000    0.0000000000   -0.0000000000

Norm of the Dispersion gradient    ...    0.0037522966
RMS gradient                       ...    0.0004844194
MAX gradient                       ...    0.0011149117
SRB correction                   ... done

------------------
CARTESIAN GRADIENT
------------------

   1   O   :    0.013530232    0.008748842   -0.000813855
   2   O   :   -0.001339280   -0.009823725   -0.000436096
   3   O   :   -0.000442332   -0.000849765   -0.000861014
   4   O   :    0.012621579   -0.002575808    0.001584912
   5   O   :    0.000058158    0.002514238   -0.005136929
   6   O   :    0.009691624   -0.001372509    0.007069144
   7   C   :   -0.013708415   -0.008853507   -0.005761427
   8   C   :    0.006669018    0.008698608    0.003660874
   9   C   :    0.002611239    0.001637495    0.003001234
  10   C   :   -0.013101403    0.002568444    0.001504138
  11   C   :    0.006188144    0.000658583    0.007007414
  12   C   :   -0.025069816   -0.005571594   -0.006853552
  13   H   :    0.000917056   -0.003941100    0.001177565
  14   H   :    0.004261225    0.000332131    0.002470737
  15   H   :    0.000340319   -0.003495139   -0.001688773
  16   H   :    0.000524017    0.001690427    0.004713261
  17   H   :   -0.004071958    0.003832892   -0.002322723
  18   H   :    0.003463582    0.001950895   -0.000176189
  19   H   :   -0.003057238    0.001321966   -0.004731026
  20   H   :   -0.000085749    0.002528626   -0.003407696

Difference to translation invariance:
           :   -0.0000000000   -0.0000000000   -0.0000000000

Difference to rotation invariance:
           :   -0.0000062942    0.0000787554   -0.0000807078

Norm of the Cartesian gradient     ...    0.0481707311
RMS gradient                       ...    0.0062188146
MAX gradient                       ...    0.0250698161

-------
TIMINGS
-------

Total SCF gradient time     ....        2.023 sec

Densities                   ....       0.001 sec  (  0.1%)
One electron gradient       ....       0.044 sec  (  2.2%)
RI-J Coulomb gradient       ....       0.123 sec  (  6.1%)
XC gradient                 ....       1.785 sec  ( 88.2%)

Maximum memory used throughout the entire SCFGRAD-calculation: 48.3 MB
------------------------------------------------------------------------------
                         ORCA GEOMETRY RELAXATION STEP
------------------------------------------------------------------------------

Reading the OPT-File                    .... done
Getting information on internals        .... done
Copying old internal coords+grads       .... done
Making the new internal coordinates     .... (2022 redundants) done
Validating the new internal coordinates .... (2022 redundants) done
Calculating the B-matrix                .... done
Calculating the G,G- and P matrices     .... done
Transforming gradient to internals      .... done
Projecting the internal gradient        .... done
Number of atoms                         ....  20
Number of internal coordinates          ....  94
Current Energy                          ....  -684.499085289 Eh
Current gradient norm                   ....     0.048170731 Eh/bohr
Maximum allowed component of the step   ....  0.300
Current trust radius                    ....  0.300
Evaluating the initial hessian          ....  (Almloef) done
Projecting the Hessian                  .... done
Forming the augmented Hessian           .... done
Diagonalizing the augmented Hessian     .... done
Last element of RFO vector              ....  0.983806394
Lowest eigenvalues of augmented Hessian:
 -0.003294978  0.009057325  0.009433841  0.018032260  0.018229260
Length of the computed step             ....  0.182184650
The final length of the internal step   ....  0.182184650
Converting the step to Cartesian space:
 Initial RMS(Int)=    0.0187909119
Transforming coordinates:
 Iter   0:  RMS(Cart)=    0.0393790568 RMS(Int)=    0.9143713682
done
Storing new coordinates                 .... done

                                .--------------------.
          ----------------------|Geometry convergence|-------------------------
          Item                value                   Tolerance       Converged
          ---------------------------------------------------------------------
          RMS gradient        0.0034531613            0.0000300000      NO
          MAX gradient        0.0118515324            0.0001000000      NO
          RMS step            0.0187909119            0.0020000000      NO
          MAX step            0.0850113769            0.0040000000      NO
          ........................................................
          Max(Bonds)      0.0450      Max(Angles)    1.29
          Max(Dihed)        2.82      Max(Improp)    0.00
          ---------------------------------------------------------------------

The optimization has not yet converged - more geometry cycles are needed


    ---------------------------------------------------------------------------
                         Redundant Internal Coordinates
                            (Angstroem and degrees)

        Definition                    Value    dE/dq     Step     New-Value
    ----------------------------------------------------------------------------
     1. B(C   6,O   0)                1.4260 -0.006283  0.0067    1.4326   
     2. B(C   7,O   1)                1.3971 -0.003334  0.0035    1.4005   
     3. B(C   7,C   6)                1.5591  0.005372 -0.0083    1.5508   
     4. B(C   8,O   2)                1.3447  0.002482 -0.0020    1.3427   
     5. B(C   8,C   6)                1.5040  0.006665 -0.0093    1.4947   
     6. B(C   9,C   7)                1.5445  0.004657 -0.0063    1.5382   
     7. B(C   9,O   3)                1.4053 -0.006746  0.0068    1.4121   
     8. B(C  10,C   8)                1.3410  0.005342 -0.0040    1.3370   
     9. B(C  10,O   4)                1.3613  0.008901 -0.0075    1.3538   
    10. B(C  11,C  10)                1.4650  0.008774 -0.0093    1.4558   
    11. B(C  11,O   5)                1.1996 -0.011852  0.0056    1.2051   
    12. B(C  11,O   0)                1.3683 -0.005797  0.0055    1.3738   
    13. B(H  12,C   6)                1.0983  0.004124 -0.0062    1.0921   
    14. B(H  13,C   7)                1.0990  0.004890 -0.0074    1.0917   
    15. B(H  14,C   9)                1.1018  0.003612 -0.0055    1.0963   
    16. B(H  15,C   9)                1.0956  0.004933 -0.0073    1.0883   
    17. B(H  16,O   3)                2.1098 -0.000992  0.0301    2.1399   
    18. B(H  16,O   1)                0.9740  0.004028 -0.0045    0.9695   
    19. B(H  17,O   2)                0.9694  0.003230 -0.0034    0.9660   
    20. B(H  18,O   0)                2.0718 -0.001118  0.0450    2.1168   
    21. B(H  18,O   3)                0.9714  0.003541 -0.0038    0.9676   
    22. B(H  19,O   4)                0.9713  0.002900 -0.0031    0.9683   
    23. A(C   6,O   0,C  11)          110.91  0.008476   -1.17    109.73   
    24. A(C   7,O   1,H  16)          107.64  0.008596   -1.26    106.38   
    25. A(C   8,O   2,H  17)          110.21  0.004247   -0.65    109.57   
    26. A(C   9,O   3,H  18)          109.78  0.008210   -1.29    108.49   
    27. A(C  10,O   4,H  19)          108.18  0.005687   -0.88    107.30   
    28. A(O   0,C   6,C   8)          103.75 -0.001773    0.50    104.24   
    29. A(C   7,C   6,C   8)          111.86 -0.002121    0.79    112.64   
    30. A(O   0,C   6,H  12)          108.76  0.000941   -0.51    108.24   
    31. A(C   8,C   6,H  12)          112.75  0.001568   -0.57    112.18   
    32. A(O   0,C   6,C   7)          109.74  0.000524    0.27    110.01   
    33. A(C   7,C   6,H  12)          109.78  0.000811   -0.44    109.34   
    34. A(C   6,C   7,C   9)          110.67  0.000559    0.26    110.93   
    35. A(C   9,C   7,H  13)          110.90  0.001131   -0.83    110.07   
    36. A(C   6,C   7,H  13)          107.17  0.001326   -0.85    106.32   
    37. A(O   1,C   7,H  13)          108.56  0.000894   -0.61    107.95   
    38. A(O   1,C   7,C   6)          110.36 -0.003231    1.14    111.50   
    39. A(O   1,C   7,C   9)          109.15 -0.000673    0.85    110.00   
    40. A(O   2,C   8,C   6)          119.30  0.001738   -0.16    119.15   
    41. A(C   6,C   8,C  10)          108.89 -0.002069    0.11    109.00   
    42. A(O   2,C   8,C  10)          131.77  0.000344    0.03    131.80   
    43. A(H  14,C   9,H  15)          108.77  0.000653   -0.46    108.31   
    44. A(O   3,C   9,H  15)          106.82  0.001872   -0.50    106.32   
    45. A(C   7,C   9,H  14)          110.34  0.000847    0.02    110.35   
    46. A(O   3,C   9,H  14)          111.85  0.000764    0.11    111.96   
    47. A(O   3,C   9,C   7)          110.02 -0.004489    0.97    110.99   
    48. A(C   7,C   9,H  15)          108.93  0.000444   -0.18    108.75   
    49. A(C   8,C  10,C  11)          108.82 -0.000775    0.06    108.88   
    50. A(O   4,C  10,C  11)          122.02 -0.002302    0.34    122.37   
    51. A(O   4,C  10,C   8)          129.14  0.003061   -0.37    128.77   
    52. A(O   0,C  11,O   5)          124.47  0.004508   -0.60    123.88   
    53. A(O   5,C  11,C  10)          128.20 -0.000724    0.03    128.23   
    54. A(O   0,C  11,C  10)          107.32 -0.003779    0.57    107.89   
    55. D(C   7,C   6,O   0,C  11)    113.99 -0.002704    1.84    115.83   
    56. D(C   8,C   6,O   0,C  11)     -5.67  0.000498    0.52     -5.16   
    57. D(H  12,C   6,O   0,C  11)   -125.90 -0.000824    1.15   -124.75   
    58. D(C   9,C   7,C   6,H  12)    -60.23 -0.001408    0.28    -59.95   
    59. D(O   1,C   7,C   6,C   8)     52.90  0.000109   -1.23     51.67   
    60. D(C   9,C   7,C   6,C   8)    173.83 -0.002507    0.77    174.59   
    61. D(C   9,C   7,O   1,H  16)    -32.70  0.000109    1.21    -31.49   
    62. D(H  13,C   7,O   1,H  16)   -153.69 -0.001406    2.08   -151.62   
    63. D(C   6,C   7,O   1,H  16)     89.13 -0.001701    2.82     91.95   
    64. D(O   1,C   7,C   6,O   0)    -61.68  0.003185   -2.45    -64.13   
    65. D(O   1,C   7,C   6,H  12)    178.84  0.001208   -1.72    177.12   
    66. D(C   9,C   7,C   6,O   0)     59.25  0.000569   -0.46     58.79   
    67. D(O   2,C   8,C   6,O   0)   -176.90 -0.000337   -0.85   -177.75   
    68. D(C  10,C   8,O   2,H  17)      3.77  0.000349   -0.35      3.42   
    69. D(C   6,C   8,O   2,H  17)   -173.65 -0.000042   -0.14   -173.79   
    70. D(C  10,C   8,C   6,C   7)   -113.08  0.000782   -1.68   -114.76   
    71. D(C  10,C   8,C   6,O   0)      5.13 -0.000681   -0.68      4.45   
[...]
     27       0.001756   0.005859  -0.000799  -0.000051   0.000532  -0.000004
     28      -0.014120  -0.032253   0.000975  -0.000017  -0.000695  -0.000027
     29      -0.002208  -0.082765  -0.000224  -0.000045  -0.002570  -0.000002
     30      -0.000096   0.000069   0.000082   0.001496  -0.000173   0.001374
     31       0.000310   0.000017   0.000100  -0.000629  -0.000035   0.000789
     32      -0.000681   0.000041  -0.000068   0.001874  -0.000013  -0.000162
     33      -0.000268   0.000018  -0.000203  -0.001116   0.000103  -0.000906
     34       0.000462  -0.000166  -0.000059   0.000682   0.000431  -0.000403
     35      -0.000950   0.000264  -0.000135  -0.001723  -0.000548   0.000015
     36      -0.190457  -0.002394  -0.000989   0.000538  -0.001048   0.000361
     37       0.584582   0.006108   0.002559   0.000876   0.001387  -0.000588
     38      -0.037159   0.000212   0.001583   0.000187  -0.000315   0.000198
     39      -0.619063   0.055634  -0.009024  -0.000116   0.000849  -0.000492
     40       0.084256  -0.004350   0.003763   0.000104   0.000995  -0.000001
     41      -0.440013   0.038367  -0.008238   0.000104  -0.001546  -0.000485
     42      -0.018188  -0.023960   0.004695   0.000095   0.004303   0.000029
     43       0.168701   0.219918  -0.003656  -0.000024  -0.002288   0.000068
     44       0.024921   0.024645   0.001019   0.000064   0.001778   0.000057
     45      -0.000131  -0.039128   0.000316   0.000186   0.000224   0.000079
     46       0.000988   0.166405  -0.000865   0.000056   0.003941   0.000026
     47       0.005836   0.952987   0.000120  -0.000048   0.018526  -0.000065
     48       0.011187   0.000044  -0.985459  -0.012309  -0.101973  -0.002915
     49       0.006860  -0.000476   0.089034   0.001134   0.005072   0.000355
     50       0.005552  -0.002754  -0.079157  -0.001021  -0.007620  -0.000041
     51      -0.000933   0.000183  -0.000864  -0.006694  -0.005213   0.526011
     52      -0.000097   0.000134  -0.001237  -0.008397  -0.006365   0.647970
     53      -0.000750  -0.000239   0.000968   0.006953   0.005366  -0.547073
     54      -0.000885   0.008265  -0.004393  -0.000116   0.032870   0.000007
     55      -0.001266  -0.006806  -0.020396   0.001119   0.203643   0.001845
     56      -0.000049  -0.018249  -0.100232   0.005124   0.970858   0.009426
     57       0.000581  -0.000161   0.008022  -0.675005   0.004727  -0.008447
     58      -0.000129  -0.000086  -0.002292   0.190545  -0.000909   0.002297
     59       0.000115  -0.000059   0.008436  -0.709828   0.004531  -0.009342


-----------
IR SPECTRUM
-----------

 Mode   freq       eps      Int      T**2         TX        TY        TZ
       cm**-1   L/(mol*cm) km/mol    a.u.
----------------------------------------------------------------------------
  6:     59.19   0.000162    0.82  0.000854  ( 0.026966 -0.010259  0.004617)
  7:     77.08   0.000132    0.67  0.000535  (-0.004874 -0.006482 -0.021660)
  8:    117.57   0.000763    3.86  0.002025  (-0.027732  0.003305  0.035288)
  9:    146.82   0.000445    2.25  0.000945  (-0.021809 -0.006368  0.020720)
 10:    159.58   0.001469    7.43  0.002873  ( 0.037444  0.037942 -0.005625)
 11:    232.14   0.001768    8.93  0.002377  ( 0.004676  0.030943 -0.037381)
 12:    258.39   0.000817    4.13  0.000987  ( 0.029024  0.001187 -0.011961)
 13:    284.99   0.000115    0.58  0.000126  ( 0.006714  0.008275 -0.003524)
 14:    307.37   0.002581   13.04  0.002620  (-0.020644 -0.039511  0.025162)
 15:    324.66   0.000815    4.12  0.000784  ( 0.024920 -0.012206 -0.003706)
 16:    368.00   0.000193    0.97  0.000163  (-0.007796 -0.009664  0.003031)
 17:    377.56   0.034438  174.03  0.028463  ( 0.061787 -0.127758 -0.091233)
 18:    420.16   0.002850   14.40  0.002117  ( 0.030772 -0.029640 -0.017065)
 19:    437.64   0.012906   65.22  0.009203  (-0.023497 -0.070602 -0.060548)
 20:    523.77   0.001466    7.41  0.000873  ( 0.016393  0.023873  0.005878)
 21:    563.61   0.000281    1.42  0.000156  ( 0.002358 -0.012249  0.000343)
 22:    584.41   0.006487   32.78  0.003464  (-0.033747 -0.036296  0.031740)
 23:    621.16   0.037872  191.39  0.019026  (-0.081989 -0.067424  0.088081)
 24:    626.85   0.000607    3.07  0.000302  (-0.004097  0.003825 -0.016453)
 25:    686.47   0.001001    5.06  0.000455  ( 0.005789 -0.006384  0.019517)
 26:    737.34   0.002211   11.17  0.000936  ( 0.003241 -0.028890 -0.009511)
 27:    770.69   0.000513    2.59  0.000208  (-0.002901  0.001312 -0.014063)
 28:    823.84   0.002158   10.90  0.000817  ( 0.013427  0.022343  0.011739)
 29:    829.56   0.004996   25.25  0.001879  ( 0.032236 -0.028800 -0.003267)
 30:    924.44   0.002255   11.40  0.000761  (-0.001482 -0.022470 -0.015947)
 31:    955.61   0.005745   29.03  0.001876  (-0.014181 -0.023943  0.033192)
 32:   1032.21   0.008798   44.46  0.002660  (-0.038714  0.001159 -0.034057)
 33:   1037.95   0.009291   46.95  0.002793  ( 0.014778 -0.011522  0.049418)
 34:   1074.88   0.005630   28.45  0.001634  ( 0.040375 -0.000803  0.001910)
 35:   1105.99   0.033514  169.36  0.009456  (-0.027823 -0.083345  0.041661)
 36:   1106.86   0.034907  176.40  0.009841  (-0.087521  0.000032  0.046707)
 37:   1169.61   0.019242   97.24  0.005134  (-0.018091  0.031462 -0.061779)
 38:   1221.29   0.004156   21.00  0.001062  ( 0.025052  0.020618  0.003053)
 39:   1240.16   0.002235   11.29  0.000562  ( 0.004422  0.019362  0.012955)
 40:   1303.28   0.015446   78.06  0.003698  (-0.033906 -0.038378  0.032802)
 41:   1307.58   0.008010   40.48  0.001912  ( 0.017690 -0.019549  0.034879)
 42:   1330.31   0.035983  181.85  0.008441  ( 0.077398  0.000920  0.049495)
 43:   1365.06   0.001565    7.91  0.000358  (-0.011497 -0.011385  0.009797)
 44:   1372.18   0.003054   15.44  0.000695  (-0.010431 -0.014662  0.019257)
 45:   1384.74   0.003162   15.98  0.000713  ( 0.005152  0.015335 -0.021232)
 46:   1425.91   0.010212   51.60  0.002235  ( 0.029751  0.035447 -0.009652)
 47:   1441.13   0.010235   51.72  0.002216  (-0.024119  0.039081  0.010352)
 48:   1457.11   0.006478   32.74  0.001387  ( 0.012107 -0.012652  0.032874)
 49:   1498.58   0.001315    6.64  0.000274  ( 0.006933  0.012014 -0.009020)
 50:   1748.43   0.090849  459.11  0.016215  ( 0.105345  0.003995  0.071423)
 51:   1807.88   0.055001  277.95  0.009494  ( 0.035191 -0.033098  0.084616)
 52:   2967.72   0.008086   40.87  0.000850  (-0.006053  0.027466 -0.007699)
 53:   2993.27   0.001135    5.73  0.000118  ( 0.003617  0.009864 -0.002813)
 54:   3005.35   0.013285   67.14  0.001379  ( 0.021014 -0.025568  0.016857)
 55:   3065.77   0.006080   30.73  0.000619  ( 0.000771 -0.005095 -0.024338)
 56:   3641.60   0.011685   59.05  0.001001  (-0.031308 -0.002799  0.003656)
 57:   3676.95   0.015726   79.47  0.001335  (-0.021146  0.009180 -0.028342)
 58:   3695.12   0.012974   65.57  0.001096  (-0.005688 -0.000023  0.032609)
 59:   3726.45   0.014872   75.15  0.001245  ( 0.030539  0.017170 -0.004238)

* The epsilon (eps) is given for a Dirac delta lineshape.
** The dipole moment derivative (T) already includes vibrational overlap.

The first frequency considered to be a vibration is 6
The total number of vibrations considered is 54


--------------------------
THERMOCHEMISTRY AT 298.15K
--------------------------

Temperature         ...   298.15 K
Pressure            ...     1.00 atm
Total Mass          ...   176.12 AMU
Quasi RRHO          ...     True
Cut-Off Frequency   ...     1.00 cm^-1

Throughout the following assumptions are being made:
  (1) The electronic state is orbitally nondegenerate
  (2) There are no thermally accessible electronically excited states
  (3) Hindered rotations indicated by low frequency modes are not
      treated as such but are treated as vibrations and this may
      cause some error
  (4) All equations used are the standard statistical mechanics
      equations for an ideal gas
  (5) All vibrations are strictly harmonic

freq.      59.19  E(vib)   ...       0.51 
freq.      77.08  E(vib)   ...       0.49 
freq.     117.57  E(vib)   ...       0.44 
freq.     146.82  E(vib)   ...       0.41 
freq.     159.58  E(vib)   ...       0.39 
freq.     232.14  E(vib)   ...       0.32 
freq.     258.39  E(vib)   ...       0.30 
freq.     284.99  E(vib)   ...       0.28 
freq.     307.37  E(vib)   ...       0.26 
freq.     324.66  E(vib)   ...       0.24 
freq.     368.00  E(vib)   ...       0.21 
freq.     377.56  E(vib)   ...       0.21 
freq.     420.16  E(vib)   ...       0.18 
freq.     437.64  E(vib)   ...       0.17 
freq.     523.77  E(vib)   ...       0.13 
freq.     563.61  E(vib)   ...       0.11 
freq.     584.41  E(vib)   ...       0.11 
freq.     621.16  E(vib)   ...       0.09 
freq.     626.85  E(vib)   ...       0.09 
freq.     686.47  E(vib)   ...       0.07 
freq.     737.34  E(vib)   ...       0.06 
freq.     770.69  E(vib)   ...       0.05 
freq.     823.84  E(vib)   ...       0.05 
freq.     829.56  E(vib)   ...       0.04 
freq.     924.44  E(vib)   ...       0.03 
freq.     955.61  E(vib)   ...       0.03 
freq.    1032.21  E(vib)   ...       0.02 
freq.    1037.95  E(vib)   ...       0.02 
freq.    1074.88  E(vib)   ...       0.02 
freq.    1105.99  E(vib)   ...       0.02 
freq.    1106.86  E(vib)   ...       0.02 
freq.    1169.61  E(vib)   ...       0.01 
freq.    1221.29  E(vib)   ...       0.01 
freq.    1240.16  E(vib)   ...       0.01 
freq.    1303.28  E(vib)   ...       0.01 
freq.    1307.58  E(vib)   ...       0.01 
freq.    1330.31  E(vib)   ...       0.01 
freq.    1365.06  E(vib)   ...       0.01 
freq.    1372.18  E(vib)   ...       0.01 
freq.    1384.74  E(vib)   ...       0.00 
freq.    1425.91  E(vib)   ...       0.00 
freq.    1441.13  E(vib)   ...       0.00 
freq.    1457.11  E(vib)   ...       0.00 
freq.    1498.58  E(vib)   ...       0.00 
freq.    1748.43  E(vib)   ...       0.00 
freq.    1807.88  E(vib)   ...       0.00 
freq.    2967.72  E(vib)   ...       0.00 
freq.    2993.27  E(vib)   ...       0.00 
freq.    3005.35  E(vib)   ...       0.00 
freq.    3065.77  E(vib)   ...       0.00 
freq.    3641.60  E(vib)   ...       0.00 
freq.    3676.95  E(vib)   ...       0.00 
freq.    3695.12  E(vib)   ...       0.00 
freq.    3726.45  E(vib)   ...       0.00 

------------
INNER ENERGY
------------

The inner energy is: U= E(el) + E(ZPE) + E(vib) + E(rot) + E(trans)
    E(el)   - is the total energy from the electronic structure calculation
              = E(kin-el) + E(nuc-el) + E(el-el) + E(nuc-nuc)
    E(ZPE)  - the the zero temperature vibrational energy from the frequency calculation
    E(vib)  - the the finite temperature correction to E(ZPE) due to population
              of excited vibrational states
    E(rot)  - is the rotational thermal energy
    E(trans)- is the translational thermal energy

Summary of contributions to the inner energy U:
Electronic energy                ...   -684.50204610 Eh
Zero point energy                ...      0.14904292 Eh      93.53 kcal/mol
Thermal vibrational correction   ...      0.00870164 Eh       5.46 kcal/mol
Thermal rotational correction    ...      0.00141627 Eh       0.89 kcal/mol
Thermal translational correction ...      0.00141627 Eh       0.89 kcal/mol
-----------------------------------------------------------------------
Total thermal energy                   -684.34146899 Eh


Summary of corrections to the electronic energy:
(perhaps to be used in another calculation)
Total thermal correction                  0.01153418 Eh       7.24 kcal/mol
Non-thermal (ZPE) correction              0.14904292 Eh      93.53 kcal/mol
-----------------------------------------------------------------------
Total correction                          0.16057711 Eh     100.76 kcal/mol


--------
ENTHALPY
--------

The enthalpy is H = U + kB*T
                kB is Boltzmann's constant
Total thermal energy              ...   -684.34146899 Eh 
Thermal Enthalpy correction       ...      0.00094421 Eh       0.59 kcal/mol
-----------------------------------------------------------------------
Total Enthalpy                    ...   -684.34052479 Eh


Note: Only C1 symmetry has been detected, increase convergence thresholds 
      if your molecule has a higher symmetry. Symmetry factor of 1.0 is   
      used for the rotational entropy correction. 
 

Note: Rotational entropy computed according to Herzberg 
Infrared and Raman Spectra, Chapter V,1, Van Nostrand Reinhold, 1945 
Point Group:  C1, Symmetry Number:   1  
Rotational constants in cm-1:     0.048448     0.025413     0.019227 

Vibrational entropy computed according to the QRRHO of S. Grimme
Chem.Eur.J. 2012 18 9955 using a reference frequency of 100.0 cm-1


-------
ENTROPY
-------

The entropy contributions are T*S = T*(S(el)+S(vib)+S(rot)+S(trans))
     S(el)   - electronic entropy
     S(vib)  - vibrational entropy
     S(rot)  - rotational entropy
     S(trans)- translational entropy
The entropies will be listed as multiplied by the temperature to get
units of energy

Electronic entropy                ...      0.00000000 Eh      0.00 kcal/mol
Vibrational entropy               ...      0.01479750 Eh      9.29 kcal/mol
Rotational entropy                ...      0.01453916 Eh      9.12 kcal/mol
Translational entropy             ...      0.01967288 Eh     12.34 kcal/mol
-----------------------------------------------------------------------
Final entropy term                ...      0.04900953 Eh     30.75 kcal/mol

In case the symmetry of your molecule has not been determined correctly
or in case you have a reason to use a different symmetry number we print 
out the resulting rotational entropy values for sn=1,12:

 non-linear molecules -----------------------------------
|  sn= 1 | S(rot)=       0.01453916 Eh      9.12 kcal/mol|
|  sn= 2 | S(rot)=       0.01388470 Eh      8.71 kcal/mol|
|  sn= 3 | S(rot)=       0.01350187 Eh      8.47 kcal/mol|
|  sn= 4 | S(rot)=       0.01323025 Eh      8.30 kcal/mol|
|  sn= 5 | S(rot)=       0.01301956 Eh      8.17 kcal/mol|
|  sn= 6 | S(rot)=       0.01284741 Eh      8.06 kcal/mol|
|  sn= 7 | S(rot)=       0.01270187 Eh      7.97 kcal/mol|
|  sn= 8 | S(rot)=       0.01257579 Eh      7.89 kcal/mol|
|  sn= 9 | S(rot)=       0.01246458 Eh      7.82 kcal/mol|
|  sn=10 | S(rot)=       0.01236510 Eh      7.76 kcal/mol|
|  sn=11 | S(rot)=       0.01227511 Eh      7.70 kcal/mol|
|  sn=12 | S(rot)=       0.01219296 Eh      7.65 kcal/mol|
 linear molecules ---------------------------------------
|  Dinfh | S(rot)=       0.00905670 Eh      5.68 kcal/mol|
|  Cinfv | S(rot)=       0.00971116 Eh      6.09 kcal/mol|
 --------------------------------------------------------


-------------------
GIBBS FREE ENERGY
-------------------

The Gibbs free energy is G = H - T*S

Total enthalpy                    ...   -684.34052479 Eh 
Total entropy correction          ...     -0.04900953 Eh    -30.75 kcal/mol
-----------------------------------------------------------------------
Final Gibbs free energy         ...   -684.38953432 Eh

For completeness - the Gibbs free energy minus the electronic energy
G-E(el)                           ...      0.11251178 Eh     70.60 kcal/mol


Maximum memory used throughout the entire PROP-calculation: 67.0 MB

--------------------------------
SUGGESTED CITATIONS FOR THIS RUN
--------------------------------

Below you find a list of papers that are relevant to this ORCA run
We neither can nor want to force you to cite these papers, but we appreciate if you do
You receive ORCA, which is the product of decades of hard work by many enthusiastic individuals, for free
The only thing we kindly ask in return is that you cite our papers,
We deeply appreciate it, if you show your appreciation for ORCA by not just citing the generic ORCA reference.

Please note that relegating all ORCA citations to the supporting information does *not* help us.
SI sections are not indexed - citations you put there will not count into any citation statistics
But we need these citations in order to attract the funding resources that allow us to do what we are doing

Therefore, if you are a happy ORCA user, please consider citing a few of the papers listed below in the main body of your paper

In addition to the list printed below, the program has created the file m1_00_Vitamin_C-GFN1_00-B97-3C-TZ.bibtex that contains the list in bibtex format
You can import this file easily into all common literature databanks and citation aid programs


List of essential papers. We consider these as the minimum necessary citations

  1. Neese,F.
     Software update: the ORCA program system, version 5.0
     WIRES Comput. Molec. Sci., 2022 12(1)e1606
     doi.org/10.1002/wcms.1606

List of papers to cite with high priority. The work reported in these papers was absolutely
necessary for this run to complete.
Our perspective: the developers of density functionals and basis sets usually get cited in chemistry papers
Good! But without the algorithms to do something with them, the functionals or basis sets would not do anything.
Hence, in our opinion, the algorithm design and method developments papers are equally worthy of getting cited

  1. Neese,F.
     An improvement of the resolution of the identity approximation for the formation of the Coulomb matrix
     J. Comp. Chem., 2003 24(14)1740-1747
     doi.org/10.1002/jcc.10318
  2. Bykov,D.; Petrenko,T.; Izsak,R.; Kossmann,S.; Becker,U.; Valeev,E.; Neese,F.
     Efficient implementation of the analytic second derivatives of Hartree-Fock and hybrid DFT energies: a detailed analysis of different approximations
     Molec. Phys., 2015 113 1961-1977
     doi.org/10.1080/00268976.2015.1025114
  3. Neese,F.
     The SHARK Integral Generation and Digestion System
     J. Comp. Chem., 2022  1-16
     doi.org/10.1002/jcc.26942
  4. Grimme,S.; Antony,J.; Ehrlich,S.; Krieg,H.
     A consistent and accurate ab initio parametrization of density functional dispersion correction (DFT-D) for the 94 elements H-Pu
     J. Chem. Phys., 2010 132 154104
     doi.org/10.1063/1.3382344
  5. Grimme,S.; Ehrlich,S.; Goerigk,L.
     Effect of the damping function in dispersion corrected density functional theory
     J. Comput. Chem., 2011 32(7)1456-1465
     doi.org/10.1002/jcc.21759

List of suggested additional citations. These are papers that are important in the 'surrounding' of 
of this run, or papers that preceded the highly important papers. If you like your results we are grateful for a citation.

  1. Neese,F.
     The ORCA program system
     WIRES Comput. Molec. Sci., 2012 2(1)73-78
     doi.org/10.1002/wcms.81
  2. Neese,F.
     Software update: the ORCA program system, version 4.0
     WIRES Comput. Molec. Sci., 2018 8(1)1-6
     doi.org/10.1002/wcms.1327
  3. Neese,F.; Wennmohs,F.; Becker,U.; Riplinger,C.
     The ORCA quantum chemistry program package
     J. Chem. Phys., 2020 152 Art. No. L224108
     doi.org/10.1063/5.0004608

List of optional additional citations

  1. Neese,F.
     Approximate second-order SCF convergence for spin unrestricted wavefunctions
     Chem. Phys. Lett., 2000 325(1-3)93-98
     doi.org/10.1016/s0009-2614(00)00662-x

Timings for individual modules:

Sum of individual times          ...      141.007 sec (=   2.350 min)
Startup calculation              ...       19.338 sec (=   0.322 min)  13.7 %
SCF iterations                   ...       31.808 sec (=   0.530 min)  22.6 %
Property integrals               ...       33.406 sec (=   0.557 min)  23.7 %
SCF Response                     ...       23.632 sec (=   0.394 min)  16.8 %
Property calculations            ...       14.525 sec (=   0.242 min)  10.3 %
SCF Gradient evaluation          ...       18.268 sec (=   0.304 min)  13.0 %
Geometry relaxation              ...        0.030 sec (=   0.000 min)   0.0 %
                             ****ORCA TERMINATED NORMALLY****
TOTAL RUN TIME: 0 days 0 hours 2 minutes 22 seconds 798 msec
