
                                 *****************
                                 * O   R   C   A *
                                 *****************

                                            #,                                       
                                            ###                                      
                                            ####                                     
                                            #####                                    
                                            ######                                   
                                           ########,                                 
                                     ,,################,,,,,                         
                               ,,#################################,,                 
                          ,,##########################################,,             
                       ,#########################################, ''#####,          
                    ,#############################################,,   '####,        
                  ,##################################################,,,,####,       
                ,###########''''           ''''###############################       
              ,#####''   ,,,,##########,,,,          '''####'''          '####       
            ,##' ,,,,###########################,,,                        '##       
           ' ,,###''''                  '''############,,,                           
         ,,##''                                '''############,,,,        ,,,,,,###''
      ,#''                                            '''#######################'''  
     '                                                          ''''####''''         
             ,#######,   #######,   ,#######,      ##                                
            ,#'     '#,  ##    ##  ,#'     '#,    #''#        ,####,   ,####,        
            ##       ##  ##   ,#'  ##            #'  '#       #'       #'  '#        
            ##       ##  #######   ##           ,######,      #####,   #    #        
            '#,     ,#'  ##    ##  '#,     ,#' ,#      #,     #,   #   #,  ,#        
             '#######'   ##     ##  '#######'  #'      '#     '####' # '####'        



                #########################################################
                #                        -***-                          #
                #          Department of theory and spectroscopy        #
                #                                                       #
                #                      Frank Neese                      #
                #                                                       #
                #     Directorship, Architecture, Infrastructure        #
                #                    SHARK, DRIVERS                     #
                #        Core code/Algorithms in most modules           #
                #                                                       #
                #        Max Planck Institute fuer Kohlenforschung      #
                #                Kaiser Wilhelm Platz 1                 #
                #                 D-45470 Muelheim/Ruhr                 #
                #                      Germany                          #
                #                                                       #
                #                  All rights reserved                  #
                #                        -***-                          #
                #########################################################


                         Program Version 6.0.1  -  RELEASE   -


 With contributions from (in alphabetic order):
[Max-Planck-Institut fuer Kohlenforschung]                               
  Daniel Aravena         : Magnetic Suceptibility                        
  Michael Atanasov       : Ab Initio Ligand Field Theory (pilot matlab implementation)
  Alexander A. Auer      : GIAO ZORA, VPT2 properties, NMR spectrum      
  Ute Becker             : All parallelization in ORCA, NUMFREQ, NUMCALC 
  Giovanni Bistoni       : ED, misc. LED, open-shell LED, HFLD           
  Martin Brehm           : Molecular dynamics                            
  Dmytro Bykov           : pre 5.0 version of the SCF Hessian            
  Marcos Casanova-Páez   : Triplet and SCS-CIS(D). UHF-(DLPNO)-IP/EA/STEOM-CCSD. UHF-CVS-IP/STEOM-CCSD   
  Vijay G. Chilkuri      : MRCI spin determinant printing, contributions to CSF-ICE 
  Pauline Colinet        : FMM embedding                                 
  Dipayan Datta          : RHF DLPNO-CCSD density                        
  Achintya Kumar Dutta   : EOM-CC, STEOM-CC                              
  Nicolas Foglia         : Exact transition moments, OPA infrastructure, MCD improvements    
  Dmitry Ganyushin       : Spin-Orbit,Spin-Spin,Magnetic field MRCI      
  Miquel Garcia-Rates    : C-PCM and meta-GGA Hessian, CCSD/C-PCM, Gaussian charge scheme 
  Tiago L. C. Gouveia    : GS-ROHF, GS-ROCIS                             
  Yang Guo               : DLPNO-NEVPT2, F12-NEVPT2, CIM, IAO-localization        
  Andreas Hansen         : Spin unrestricted coupled pair/coupled cluster methods 
  Ingolf Harden          : AUTO-CI MPn and infrastructure                
  Benjamin Helmich-Paris : MC-RPA, TRAH-(SCF,CASSCF), AVAS, COSX integrals, SCF dyn. polar. 
  Lee Huntington         : MR-EOM, pCC                                   
  Robert Izsak           : Overlap fitted RIJCOSX, COSX-SCS-MP3, EOM     
  Riya Kayal             : Wick's Theorem for AUTO-CI, AUTO-CI UHF-CCSDT 
  Emily Kempfer          : AUTO-CI, RHF CISDT and CCSDT                  
  Christian Kollmar      : KDIIS, OOCD, Brueckner-CCSD(T), CCSD density, CASPT2, CASPT2-K, improved NEVPT2 
  Axel Koslowski         : Symmetry handling                             
  Simone Kossmann        : meta-GGA functionals, TD-DFT gradient, OOMP2, (MP2 Hessian; deprecated post 5.0) 
  Lucas Lang             : DCDCAS                                        
  Marvin Lechner         : AUTO-CI (C++ implementation), FIC-MRCC        
  Spencer Leger          : CASSCF response                               
  Dagmar Lenk            : GEPOL surface, SMD, ORCA-2-JSON               
  Dimitrios Liakos       : Extrapolation schemes; Compound Job, initial MDCI parallelization 
  Dimitrios Manganas     : Further ROCIS development; embedding schemes. LFT, Crystal Embedding 
  Dimitrios Pantazis     : SARC Basis sets                               
  Anastasios Papadopoulos: AUTO-CI, single reference methods and gradients 
  Taras Petrenko         : pre 6.0 DFT Hessian and TD-DFT gradient, (ASA, deprecated), ECA, 1-Electron XAS/XES, NRVS 
  Peter Pinski           : DLPNO-MP2, DLPNO-MP2 Gradient                 
  Christoph Reimann      : Effective Core Potentials                     
  Marius Retegan         : Local ZFS, SOC                                
  Christoph Riplinger    : Optimizer, TS searches, QM/MM, DLPNO-CCSD(T), (RO)-DLPNO pert. Triples 
  Michael Roemelt        : Original ROCIS implementation                 
  Masaaki Saitow         : Open-shell DLPNO-CCSD energy and density      
  Barbara Sandhoefer     : DKH picture change effects                    
  Kantharuban Sivalingam : CASSCF convergence/infrastructure, NEVPT2 and variants, FIC-MRCI 
  Bernardo de Souza      : ESD, SOC TD-DFT                               
  Georgi L. Stoychev     : AutoAux, RI-MP2 NMR, DLPNO-MP2 response, X2C  
  Van Anh Tran           : RI-MP2 g-tensors                              
  Willem Van den Heuvel  : Paramagnetic NMR                              
  Zikuan Wang            : NOTCH, Electric field optimization            
  Frank Wennmohs         : Technical directorship and infrastructure     
  Hang Xu                : AUTO-CI-Response properties                   
                                                                         
[FACCTs GmbH]                                                            
  Markus Bursch, Miquel Garcia-Rates, Christoph Riplinger, Bernardo de Souza, Georgi L. Stoychev 
                                                                 
  APM, Basis sets (HGBS, AHGBS, def-TZVP (Ac-Lr), def2-XVPD (La-Lu)), CI-OPT, improved COSX, DLPNO-Multilevel,           
  DOCKER, DRACO, updates on ESD, GOAT, IRC, LR-CPCM, MBIS, meta-GGA TD-DFT gradient, ML-optimized integration grids, 
  MM, NACMEs, nearIR, NEB, NEB-TS, NL-DFT gradient (VV10), 2- and 3-layer-ONIOM, interface openCOSMO-RS, QMMM,   
  Crystal-QMMM, SF, symmetry and pop. for TD-DFT, r2SCAN hybrids, SOLVATOR                                   
                                                                         
[Other institutions]                                                     
  V. Asgeirsson          : NEB                                           
  Christoph Bannwarth    : sTDA-DFT, sTD-DFT, PBEh-3c, B97-3c, D3        
  Sebastian Ehlert       : rSCAN, r2SCAN, r2SCAN-3c, D4, dhf basis sets  
  Marvin Friede          : D4 for Fr, Ra, Ac-Lr                          
  Lars Goerigk           : TD-DFT with DH, B97 family of functionals     
  Stefan Grimme          : VdW corrections, initial TS optimization, DFT functionals, gCP, sTDA/sTD-DF 
  Waldemar Hujo          : DFT-NL                                        
  H. Jonsson             : NEB                                           
  Holger Kruse           : gCP                                           
  Marcel Mueller         : wB97X-3c, vDZP basis set                      
  Hagen Neugebauer       : wr2SCAN                                       
  Tobias Risthaus        : range-separated hybrid DFT                    
  Lukas Wittmann         : regularized MP2, r2SCAN double-hybrids, wr2SCAN        
                                                                         
We gratefully acknowledge several colleagues who have allowed us to      
interface, adapt or use parts of their codes:                            
  Ed Valeev, F. Pavosevic, A. Kumar             : LibInt (2-el integral package), F12 methods 
  Garnet Chan, S. Sharma, J. Yang, R. Olivares  : DMRG                   
  Ulf Ekstrom                                   : XCFun DFT Library      
  Mihaly Kallay                                 : mrcc  (arbitrary order and MRCC methods)
  Frank Weinhold                                : gennbo (NPA and NBO analysis)           
  Simon Mueller                                 : openCOSMO-RS                            
  Christopher J. Cramer and Donald G. Truhlar   : smd solvation model                     
  S Lehtola, MJT Oliveira, MAL Marques          : LibXC Library                           
  Liviu Ungur et al                             : ANISO software                          


 Your calculation uses the libint2 library for the computation of 2-el integrals
 For citations please refer to: http://libint.valeyev.net

 Your ORCA version has been built with support for libXC version: 6.2.2
 For citations please refer to: https://libxc.gitlab.io

 This ORCA versions uses:
   CBLAS   interface :  Fast vector & matrix operations
   LAPACKE interface :  Fast linear algebra routines
   SCALAPACK package :  Parallel linear algebra routines
   Shared memory     :  Shared parallel matrices
   BLAS/LAPACK       :  OpenBLAS 0.3.27  USE64BITINT DYNAMIC_ARCH NO_AFFINITY Zen SINGLE_THREADED
        Core in use  :  Zen
   Copyright (c) 2011-2014, The OpenBLAS Project


NOTE: MaxCore=6000 MB was set to SCF,MP2,MDCI,CIPSI,MRCI and CIS
      => If you want to overwrite this, your respective input block should be placed after the MaxCore statement
Your calculation utilizes the atom-pairwise dispersion correction
with the Becke-Johnson damping scheme (D3BJ)


Your calculation employs the composite approach B97-3c by Grimme and coworkers.
For the correct reference, please check the publication list of the Grimme group:
http://www.thch.uni-bonn.de/tc/index.php?section=publikationen&subsection=grimme#2017
   

XCFun DFT library Copyright 2009-2010 Ulf Ekstrom and contributors.
See http://admol.org/xcfun for more information.
This is free software; see the source code for copying conditions.
There is ABSOLUTELY NO WARRANTY; not even for MERCHANTABILITY or FITNESS FOR A PARTICULAR PURPOSE.
For details see the documentation.
Scientific users of this library should cite U. Ekstrom, L. Visscher, R. Bast, A. J. Thorvaldsen and K. Ruud;
J.Chem.Theor.Comp. 2010, DOI: 10.1021/ct100117s
XCFun Version 0.99 

================================================================================

----- Orbital basis set information -----
Your calculation utilizes the basis: def2-mTZVP
----- AuxJ basis set information -----
Your calculation utilizes the basis: def2-mTZVP/J
================================================================================
                                        WARNINGS
                       Please study these warnings very carefully!
================================================================================


WARNING: Geometry Optimization
  ===> : Switching off AutoStart
         For restart on a previous wavefunction, please use MOREAD

================================================================================
                                       INPUT FILE
================================================================================
NAME = m1_00_Vitamin_B6-GFN1_000-B97-3C-TZ.inp
|  1> %pal nprocs 16 end
|  2> %MaxCore 6000
|  3> # put your comments here
|  4> ! B97-3C  OPT  FREQ DEFGRID3 NOTRAH
|  5> %scf MaxIter 800 end
|  6> %output
|  7> Print [P_Hirshfeld] 1
|  8> end
|  9> %geom
| 10> MaxIter 3000
| 11>  TolE 1e-6 #TolE 5e-6 Energy change (a.u.)
| 12>  TolRMSG 3e-5 #TolRMSG 1e-4 RMS gradient (a.u.)
| 13>  TolMaxG 1e-4 #TolMaxG 3e-3 Max. element of gradient (a.u.)
| 14>  TolRMSD 2e-3 #TolRMSD 2e-3 RMS displacement (a.u.)
| 15>  TolMaxD 4e-3 #TolMaxD 4e-3 Max. displacement (a.u.)
| 16> end
| 17> * xyz 0 1
| 18>  O 2.18885292259663 -1.48608213227278 1.85620180049198
| 19>  O 4.07386023963072 -0.93299572203696 0.05917394144332
| 20>  O 1.82779329327622 2.00143760022663 -2.05376102599450
| 21>  N -0.97902591178336 -0.93627688747558 0.28976759678622
| 22>  C 1.70802566858574 -0.34358028271427 -0.22337231748543
| 23>  C 0.69046741101443 0.07720323672852 -1.09122897727899
| 24>  C 1.31816253613575 -1.04788384633976 0.91635908912154
| 25>  C -0.03992697709368 -1.32892069785819 1.13486650976384
| 26>  C 3.16162554376694 -0.00071649064683 -0.50057579461882
| 27>  C 1.00034141593086 0.88909929946488 -2.33427790800950
| 28>  C -0.62581870849819 -0.24380216758759 -0.79098085832697
| 29>  C -0.46143942555085 -2.08760489672984 2.35803249375839
| 30>  H 3.33259190342820 0.08079705304231 -1.58286275553793
| 31>  H 3.39756227496078 0.97261395882301 -0.05258929588520
| 32>  H 1.54553814461454 0.27397288699709 -3.06238493043489
| 33>  H 0.05913088819980 1.21619650237894 -2.80509912072680
| 34>  H -1.43241631215381 0.06623949559979 -1.44929250086711
| 35>  H -0.17749064928438 -1.53799735293198 3.25704721187925
| 36>  H -1.53994341411947 -2.23557948577233 2.35061387257577
| 37>  H 0.03898193635464 -3.05672773760570 2.39076004354325
| 38>  H 3.10527110319135 -1.28621996650827 1.57509917522015
| 39>  H 3.99991367737084 -1.77735047379702 -0.40373853084089
| 40>  H 1.38791343942618 2.58328510701595 -1.42086871857679
| 41> *
| 42> 
| 43> 
| 44> 
| 45> 
| 46>                          ****END OF INPUT****
================================================================================

                       *****************************
                       * Geometry Optimization Run *
                       *****************************

Geometry optimization settings:
Update method            Update   .... BFGS
Choice of coordinates    CoordSys .... (2022) Redundant Internals
Initial Hessian          InHess   .... Almloef's Model
Max. no of cycles        MaxIter  .... 3000

Convergence Tolerances:
Energy Change            TolE     ....  1.0000e-06 Eh
Max. Gradient            TolMAXG  ....  1.0000e-04 Eh/bohr
RMS Gradient             TolRMSG  ....  3.0000e-05 Eh/bohr
Max. Displacement        TolMAXD  ....  4.0000e-03 bohr
RMS Displacement         TolRMSD  ....  2.0000e-03 bohr
Strict Convergence                .... False

------------------------------------------------------------------------------
                        ORCA OPTIMIZATION COORDINATE SETUP
------------------------------------------------------------------------------

The optimization will be done in redundant internal coordinates (2022)
Making redundant internal coordinates   ...  (2022 redundants) done
Evaluating the initial hessian          ...  (Almloef) done
Evaluating the coordinates              ...  done
Calculating the B-matrix                .... done
Calculating the G-matrix                .... done
Diagonalizing the G-matrix              .... done
Small eigenvalue found = 2.797e-02
The first mode is                       ....   41
The number of degrees of freedom        ....   63

    -----------------------------------------------------------------
                    Redundant Internal Coordinates


    -----------------------------------------------------------------
         Definition                    Initial Value    Approx d2E/dq
    -----------------------------------------------------------------
      1. B(C   5,C   4)                  1.4020         0.597809   
      2. B(C   6,O   0)                  1.3540         0.638628   
      3. B(C   6,C   4)                  1.3954         0.612618   
      4. B(C   7,C   6)                  1.4040         0.593538   
      5. B(C   7,N   3)                  1.3230         0.715824   
      6. B(C   8,C   4)                  1.5190         0.388985   
      7. B(C   8,O   1)                  1.4194         0.502346   
      8. B(C   9,C   5)                  1.5167         0.392286   
      9. B(C   9,O   2)                  1.4144         0.511529   
     10. B(C  10,C   5)                  1.3877         0.630022   
     11. B(C  10,N   3)                  1.3313         0.694332   
     12. B(C  11,C   7)                  1.4998         0.417402   
     13. B(H  12,C   8)                  1.0987         0.348728   
     14. B(H  13,C   8)                  1.0971         0.350769   
     15. B(H  14,C   9)                  1.0981         0.349580   
     16. B(H  15,C   9)                  1.1021         0.344491   
     17. B(H  16,C  10)                  1.0863         0.364996   
     18. B(H  17,C  11)                  1.0913         0.358392   
     19. B(H  18,C  11)                  1.0886         0.361913   
     20. B(H  19,C  11)                  1.0912         0.358532   
     21. B(H  20,O   1)                  1.8333         0.021022   
     22. B(H  20,O   0)                  0.9792         0.484588   
     23. B(H  21,O   1)                  0.9658         0.509071   
     24. B(H  22,O   2)                  0.9657         0.509165   
     25. A(C   6,O   0,H  20)          109.6637         0.367529   
     26. A(C   8,O   1,H  21)          109.6343         0.355760   
     27. A(C   9,O   2,H  22)          109.7140         0.356868   
     28. A(C   7,N   3,C  10)          118.9877         0.448735   
     29. A(C   5,C   4,C   8)          120.9191         0.396961   
     30. A(C   6,C   4,C   8)          122.0298         0.398671   
     31. A(C   5,C   4,C   6)          117.0205         0.430305   
     32. A(C   4,C   5,C  10)          119.0166         0.432475   
     33. A(C   4,C   5,C   9)          121.3120         0.397550   
     34. A(C   9,C   5,C  10)          119.6656         0.401237   
     35. A(O   0,C   6,C   7)          116.6930         0.430143   
     36. A(C   4,C   6,C   7)          119.8961         0.429751   
     37. A(O   0,C   6,C   4)          123.4102         0.432595   
     38. A(N   3,C   7,C  11)          118.1381         0.412257   
     39. A(N   3,C   7,C   6)          121.8579         0.439069   
     40. A(C   6,C   7,C  11)          120.0032         0.401408   
     41. A(H  12,C   8,H  13)          107.6336         0.288192   
     42. A(C   4,C   8,H  13)          109.3609         0.325075   
     43. A(O   1,C   8,H  13)          106.4669         0.337085   
     44. A(C   4,C   8,H  12)          110.2067         0.324763   
     45. A(O   1,C   8,H  12)          109.7052         0.336757   
     46. A(O   1,C   8,C   4)          113.2539         0.382633   
     47. A(H  14,C   9,H  15)          107.8800         0.287489   
     48. A(C   5,C   9,H  15)          109.5440         0.324562   
     49. A(O   2,C   9,H  15)          110.5444         0.337088   
     50. A(C   5,C   9,H  14)          110.1825         0.325345   
     51. A(O   2,C   9,H  14)          106.3549         0.337913   
     52. A(O   2,C   9,C   5)          112.2068         0.384404   
     53. A(N   3,C  10,C   5)          123.2039         0.441387   
     54. A(C   5,C  10,H  16)          120.4737         0.354679   
     55. A(N   3,C  10,H  16)          116.3222         0.358354   
     56. A(H  17,C  11,H  18)          109.3808         0.290852   
     57. A(C   7,C  11,H  18)          109.9763         0.330576   
     58. A(C   7,C  11,H  17)          110.1187         0.330042   
     59. A(H  18,C  11,H  19)          109.5007         0.290869   
     60. A(H  17,C  11,H  19)          107.6533         0.290423   
     61. A(C   7,C  11,H  19)          110.1721         0.330064   
     62. D(C  10,C   5,C   4,C   6)     -1.1695         0.024627   
     63. D(C   9,C   5,C   4,C   8)     -0.0770         0.024627   
     64. D(C   9,C   5,C   4,C   6)    177.9516         0.024627   
     65. D(C  10,C   5,C   4,C   8)   -179.1980         0.024627   
     66. D(O   0,C   6,C   4,C   5)   -178.3521         0.025933   
     67. D(C   4,C   6,O   0,H  20)     -3.8546         0.030057   
     68. D(C   7,C   6,C   4,C   5)      1.3446         0.025933   
     69. D(O   0,C   6,C   4,C   8)     -0.3471         0.025933   
     70. D(C   7,C   6,O   0,H  20)    176.4397         0.030057   
     71. D(C   7,C   6,C   4,C   8)    179.3496         0.025933   
     72. D(N   3,C   7,C   6,C   4)     -0.4454         0.024258   
     73. D(N   3,C   7,C   6,O   0)    179.2713         0.024258   
     74. D(C  11,C   7,N   3,C  10)    178.9766         0.038541   
     75. D(C  11,C   7,C   6,O   0)     -0.3771         0.024258   
     76. D(C   6,C   7,N   3,C  10)     -0.6781         0.038541   
     77. D(C  11,C   7,C   6,C   4)    179.9062         0.024258   
     78. D(H  13,C   8,C   4,C   5)     88.0337         0.011260   
     79. D(H  12,C   8,C   4,C   5)    -30.0966         0.011260   
     80. D(O   1,C   8,C   4,C   6)     28.6612         0.011260   
     81. D(O   1,C   8,C   4,C   5)   -153.4105         0.011260   
     82. D(H  12,C   8,O   1,H  21)    -54.9937         0.021651   
     83. D(H  12,C   8,C   4,C   6)    151.9751         0.011260   
     84. D(C   4,C   8,O   1,H  21)     68.5958         0.021651   
     85. D(H  13,C   8,O   1,H  21)   -171.1869         0.021651   
     86. D(H  14,C   9,C   5,C   4)     68.2356         0.011442   
     87. D(O   2,C   9,C   5,C  10)    129.0502         0.011442   
     88. D(O   2,C   9,C   5,C   4)    -50.0653         0.011442   
     89. D(H  15,C   9,O   2,H  22)     62.5586         0.020719   
     90. D(H  14,C   9,O   2,H  22)    179.4104         0.020719   
     91. D(H  14,C   9,C   5,C  10)   -112.6489         0.011442   
     92. D(C   5,C   9,O   2,H  22)    -60.0478         0.020719   
     93. D(H  15,C   9,C   5,C   4)   -173.2361         0.011442   
     94. D(H  16,C  10,C   5,C   9)      1.1502         0.027521   
     95. D(H  16,C  10,C   5,C   4)   -179.7140         0.027521   
     96. D(N   3,C  10,C   5,C   9)   -179.0519         0.027521   
     97. D(N   3,C  10,C   5,C   4)      0.0839         0.027521   
     98. D(H  16,C  10,N   3,C   7)   -179.3290         0.036047   
     99. D(C   5,C  10,N   3,C   7)      0.8653         0.036047   
    100. D(H  19,C  11,C   7,N   3)    122.5754         0.012888   
    101. D(H  18,C  11,C   7,C   6)   -178.5565         0.012888   
    102. D(H  18,C  11,C   7,N   3)      1.7822         0.012888   
    103. D(H  17,C  11,C   7,C   6)     60.8336         0.012888   
    104. D(H  17,C  11,C   7,N   3)   -118.8277         0.012888   
    -----------------------------------------------------------------

Number of atoms                         .... 23
Number of degrees of freedom            .... 104


         *************************************************************
         *                GEOMETRY OPTIMIZATION CYCLE   1            *
         *************************************************************
---------------------------------
CARTESIAN COORDINATES (ANGSTROEM)
---------------------------------
  O      2.188853   -1.486082    1.856202
  O      4.073860   -0.932996    0.059174
  O      1.827793    2.001438   -2.053761
  N     -0.979026   -0.936277    0.289768
  C      1.708026   -0.343580   -0.223372
  C      0.690467    0.077203   -1.091229
  C      1.318163   -1.047884    0.916359
  C     -0.039927   -1.328921    1.134867
  C      3.161626   -0.000716   -0.500576
  C      1.000341    0.889099   -2.334278
  C     -0.625819   -0.243802   -0.790981
  C     -0.461439   -2.087605    2.358032
  H      3.332592    0.080797   -1.582863
  H      3.397562    0.972614   -0.052589
  H      1.545538    0.273973   -3.062385
  H      0.059131    1.216197   -2.805099
  H     -1.432416    0.066239   -1.449293
  H     -0.177491   -1.537997    3.257047
  H     -1.539943   -2.235579    2.350614
  H      0.038982   -3.056728    2.390760
  H      3.105271   -1.286220    1.575099
  H      3.999914   -1.777350   -0.403739
  H      1.387913    2.583285   -1.420869

----------------------------
CARTESIAN COORDINATES (A.U.)
----------------------------
  NO LB      ZA    FRAG     MASS         X           Y           Z
   0 O     8.0000    0    15.999    4.136333   -2.808288    3.507713
   1 O     8.0000    0    15.999    7.698480   -1.763106    0.111823
   2 O     8.0000    0    15.999    3.454029    3.782169   -3.881046
   3 N     7.0000    0    14.007   -1.850091   -1.769307    0.547581
   4 C     6.0000    0    12.011    3.227701   -0.649273   -0.422113
   5 C     6.0000    0    12.011    1.304794    0.145893   -2.062124
   6 C     6.0000    0    12.011    2.490966   -1.980213    1.731668
   7 C     6.0000    0    12.011   -0.075451   -2.511296    2.144587
   8 C     6.0000    0    12.011    5.974606   -0.001354   -0.945951
   9 C     6.0000    0    12.011    1.890371    1.680154   -4.411146
  10 C     6.0000    0    12.011   -1.182626   -0.460719   -1.494737
  11 C     6.0000    0    12.011   -0.871994   -3.945002    4.456036
  12 H     1.0000    0     1.008    6.297686    0.152684   -2.991177
  13 H     1.0000    0     1.008    6.420462    1.837974   -0.099379
  14 H     1.0000    0     1.008    2.920644    0.517734   -5.787069
  15 H     1.0000    0     1.008    0.111741    2.298278   -5.300869
  16 H     1.0000    0     1.008   -2.706875    0.125175   -2.738766
  17 H     1.0000    0     1.008   -0.335409   -2.906394    6.154927
  18 H     1.0000    0     1.008   -2.910071   -4.224633    4.442016
  19 H     1.0000    0     1.008    0.073665   -5.776378    4.517882
  20 H     1.0000    0     1.008    5.868112   -2.430603    2.976506
  21 H     1.0000    0     1.008    7.558741   -3.358706   -0.762955
  22 H     1.0000    0     1.008    2.622776    4.881701   -2.685053

--------------------------------
INTERNAL COORDINATES (ANGSTROEM)
--------------------------------
 O      0   0   0     0.000000000000     0.00000000     0.00000000
 O      1   0   0     2.662417376869     0.00000000     0.00000000
 O      2   1   0     4.256783977011    96.00757124     0.00000000
 N      1   2   3     3.576514816278   107.43115409    29.95616124
 C      1   2   3     2.420977867847    57.50690474    17.44064323
 C      5   1   2     1.402019529013   144.83477872   166.75833801
 C      1   2   3     1.354039810709    85.38551175    24.98838499
 C      4   1   2     1.322977000436    17.42052352   165.12354799
 C      2   1   3     1.419378903831    86.99581340   359.78526744
 C      3   2   1     1.414447887255    82.24117405   295.84416106
 C      4   1   2     1.331275249288   101.56723295   345.25323501
 C      8   4   1     1.499803147824   118.13807182   178.83134073
 H      9   2   1     1.098735190897   109.70524714   210.73328089
 H      9   2   1     1.097146393167   106.46693322    94.54001706
 H     10   3   2     1.098070950526   106.35494829   287.19080746
 H     10   3   2     1.102062816726   110.54435103   170.33908216
 H     11   4   1     1.086323959894   116.32215810   180.71537294
 H     12   8   4     1.091294104786   110.11867105   241.17225825
 H     12   8   4     1.088633257025   109.97633222     1.78216731
 H     12   8   4     1.091188211389   110.17209012   122.57535793
 H      1   2   3     0.979176109269    25.99943724   225.66092265
 H      2   1   3     0.965759285685    95.03078134   250.32463297
 H      3   2   1     0.965708796568   109.29186201    44.08452229

---------------------------
INTERNAL COORDINATES (A.U.)
---------------------------
 O      0   0   0     0.000000000000     0.00000000     0.00000000
 O      1   0   0     5.031239696476     0.00000000     0.00000000
 O      2   1   0     8.044155927815    96.00757124     0.00000000
 N      1   2   3     6.758633516678   107.43115409    29.95616124
 C      1   2   3     4.574985146516    57.50690474    17.44064323
 C      5   1   2     2.649432944244   144.83477872   166.75833801
 C      1   2   3     2.558764416667    85.38551175    24.98838499
 C      4   1   2     2.500064212301    17.42052352   165.12354799
 C      2   1   3     2.682237408506    86.99581340   359.78526744
 C      3   2   1     2.672919137615    82.24117405   295.84416106
 C      4   1   2     2.515745630021   101.56723295   345.25323501
 C      8   4   1     2.834217204181   118.13807182   178.83134073
 H      9   2   1     2.076308604498   109.70524714   210.73328089
 H      9   2   1     2.073306211905   106.46693322    94.54001706
 H     10   3   2     2.075053372108   106.35494829   287.19080746
 H     10   3   2     2.082596905990   110.54435103   170.33908216
 H     11   4   1     2.052854776916   116.32215810   180.71537294
 H     12   8   4     2.062246989608   110.11867105   241.17225825
 H     12   8   4     2.057218716056   109.97633222     1.78216731
 H     12   8   4     2.062046880088   110.17209012   122.57535793
 H      1   2   3     1.850374683397    25.99943724   225.66092265
 H      2   1   3     1.825020561235    95.03078134   250.32463297
 H      3   2   1     1.824925150632   109.29186201    44.08452229

---------------------
BASIS SET INFORMATION
---------------------
There are 4 groups of distinct atoms

 Group   1 Type O   : 11s6p2d contracted to 5s3p2d pattern {62111/411/11}
 Group   2 Type N   : 11s6p1d contracted to 5s3p1d pattern {62111/411/1}
 Group   3 Type C   : 11s6p1d contracted to 5s3p1d pattern {62111/411/1}
 Group   4 Type H   : 5s contracted to 3s pattern {311}

Atom   0O    basis set group =>   1
Atom   1O    basis set group =>   1
Atom   2O    basis set group =>   1
Atom   3N    basis set group =>   2
Atom   4C    basis set group =>   3
Atom   5C    basis set group =>   3
Atom   6C    basis set group =>   3
Atom   7C    basis set group =>   3
Atom   8C    basis set group =>   3
Atom   9C    basis set group =>   3
Atom  10C    basis set group =>   3
Atom  11C    basis set group =>   3
Atom  12H    basis set group =>   4
Atom  13H    basis set group =>   4
Atom  14H    basis set group =>   4
Atom  15H    basis set group =>   4
Atom  16H    basis set group =>   4
Atom  17H    basis set group =>   4
Atom  18H    basis set group =>   4
Atom  19H    basis set group =>   4
Atom  20H    basis set group =>   4
Atom  21H    basis set group =>   4
Atom  22H    basis set group =>   4
---------------------------------
AUXILIARY/J BASIS SET INFORMATION
---------------------------------
There are 4 groups of distinct atoms

 Group   1 Type O   : 8s3p3d contracted to 6s3p3d pattern {311111/111/111}
 Group   2 Type N   : 8s3p3d contracted to 6s3p3d pattern {311111/111/111}
 Group   3 Type C   : 8s3p3d contracted to 6s3p3d pattern {311111/111/111}
 Group   4 Type H   : 5s2p contracted to 3s1p pattern {311/2}

Atom   0O    basis set group =>   1
Atom   1O    basis set group =>   1
Atom   2O    basis set group =>   1
Atom   3N    basis set group =>   2
Atom   4C    basis set group =>   3
Atom   5C    basis set group =>   3
Atom   6C    basis set group =>   3
Atom   7C    basis set group =>   3
Atom   8C    basis set group =>   3
Atom   9C    basis set group =>   3
Atom  10C    basis set group =>   3
Atom  11C    basis set group =>   3
Atom  12H    basis set group =>   4
Atom  13H    basis set group =>   4
Atom  14H    basis set group =>   4
Atom  15H    basis set group =>   4
Atom  16H    basis set group =>   4
Atom  17H    basis set group =>   4
Atom  18H    basis set group =>   4
Atom  19H    basis set group =>   4
Atom  20H    basis set group =>   4
Atom  21H    basis set group =>   4
Atom  22H    basis set group =>   4


           ************************************************************
           *        Program running with 16 parallel MPI-processes    *
           *              working on a common directory               *
           ************************************************************
------------------------------------------------------------------------------
                             ORCA STARTUP CALCULATIONS
                           -- RI-GTO INTEGRALS CHOSEN --
------------------------------------------------------------------------------
------------------------------------------------------------------------------
                   ___                                                        
                  /   \      - P O W E R E D   B Y -                         
                 /     \                                                     
                 |  |  |   _    _      __       _____    __    __             
                 |  |  |  | |  | |    /  \     |  _  \  |  |  /  |          
                  \  \/   | |  | |   /    \    | | | |  |  | /  /          
                 / \  \   | |__| |  /  /\  \   | |_| |  |  |/  /          
                |  |  |   |  __  | /  /__\  \  |    /   |      \           
                |  |  |   | |  | | |   __   |  |    \   |  |\   \          
                \     /   | |  | | |  |  |  |  | |\  \  |  | \   \       
                 \___/    |_|  |_| |__|  |__|  |_| \__\ |__|  \__/        
                                                                              
                      - O R C A' S   B I G   F R I E N D -                    
                                      &                                       
                       - I N T E G R A L  F E E D E R -                       
                                                                              
 v1 FN, 2020, v2 2021, v3 2022-2024                                           
------------------------------------------------------------------------------


----------------------
SHARK INTEGRAL PACKAGE
----------------------

Number of atoms                             ...     23
Number of basis functions                   ...    276
Number of shells                            ...    144
Maximum angular momentum                    ...      2
Integral batch strategy                     ... SHARK/LIBINT Hybrid
RI-J (if used) integral strategy            ... SPLIT-RIJ (Revised 2003 algorithm where possible)
Printlevel                                  ...      1
Contraction scheme used                     ... SEGMENTED contraction
Prescreening option                         ... SCHWARTZ
   Thresh                                   ... 2.500e-11
   Tcut                                     ... 2.500e-12
   Tpresel                                  ... 2.500e-12 
Coulomb Range Separation                    ... NOT USED
Exchange Range Separation                   ... NOT USED
Multipole approximations                    ... NOT USED
Finite Nucleus Model                        ... NOT USED
CABS basis                                  ... NOT available
Auxiliary Coulomb fitting basis             ... AVAILABLE
   # of basis functions in Aux-J            ...    426
   # of shells in Aux-J                     ...    188
   Maximum angular momentum in Aux-J        ...      2
Auxiliary J/K fitting basis                 ... NOT available
Auxiliary Correlation fitting basis         ... NOT available
Auxiliary 'external' fitting basis          ... NOT available

Checking pre-screening integrals            ... done (  0.0 sec) Dimension = 144
Check shell pair data                       ... done (  0.0 sec)
Shell pair information
Shell pair cut-off parameter TPreSel        ...   2.5e-12
Total number of shell pairs                 ...     10440
Shell pairs after pre-screening             ...      9056
Total number of primitive shell pairs       ...     37972
Primitive shell pairs kept                  ...     22457
          la=0 lb=0:   3561 shell pairs
          la=1 lb=0:   3039 shell pairs
          la=1 lb=1:    643 shell pairs
          la=2 lb=0:   1192 shell pairs
          la=2 lb=1:    511 shell pairs
          la=2 lb=2:    110 shell pairs

Calculating one electron integrals          ... done (  0.0 sec)
Calculating RI/J V-Matrix + Cholesky decomp.... done (  0.0 sec)
Calculating Nuclear repulsion               ... done (  0.0 sec) ENN=    726.092426933842 Eh

Diagonalization of the overlap matrix:
Smallest eigenvalue                        ... 2.804e-05
Time for diagonalization                   ...    0.005 sec
Threshold for overlap eigenvalues          ... 1.000e-07
Number of eigenvalues below threshold      ... 0
Time for construction of square roots      ...    0.003 sec
Total time needed                          ...    0.009 sec

-------------------
DFT GRID GENERATION
-------------------

General Integration Accuracy     IntAcc      ... 4.959
Radial Grid Type                 RadialGrid  ... OptM3 with GC (2021)
Angular Grid (max. ang.)         AngularGrid ... 6 (Lebedev-590)
Angular grid pruning method      GridPruning ... 4 (adaptive)
Weight generation scheme         WeightScheme... mBecke (2022)
Basis function cutoff            BFCut       ... 1.0000e-11
Integration weight cutoff        WCut        ... 1.0000e-14
Partially contracted basis set               ... off
Rotationally invariant grid construction     ... off
Angular grids for H and He will be reduced by one unit
Diffuse basis detected: some atoms will have their outermost
                        angular grid increased by 1.

Total number of grid points                  ...   267847
Total number of batches                      ...     4199
Average number of points per batch           ...       63
Average number of grid points per atom       ...    11646
Initializing property integral containers    ... done (  0.0 sec)

SHARK setup successfully completed in   2.0 seconds

Maximum memory used throughout the entire STARTUP-calculation: 57.8 MB


           ************************************************************
           *        Program running with 16 parallel MPI-processes    *
           *              working on a common directory               *
           ************************************************************
-------------------------------------------------------------------------------
                                 ORCA GUESS
                   Start orbitals & Density for SCF / CASSCF
-------------------------------------------------------------------------------

------------
SCF SETTINGS
------------
Hamiltonian:
 Density Functional     Method          .... DFT(GTOs)
 Exchange Functional    Exchange        .... B973C
 Correlation Functional Correlation     .... B973C
 Gradients option       PostSCFGGA      .... off
 RI-approximation to the Coulomb term is turned on
   Number of AuxJ basis functions       .... 426


General Settings:
 Integral files         IntName         .... m1_00_Vitamin_B6-GFN1_000-B97-3C-TZ
 Hartree-Fock type      HFTyp           .... RHF
 Total Charge           Charge          ....    0
 Multiplicity           Mult            ....    1
 Number of Electrons    NEL             ....   90
 Basis Dimension        Dim             ....  276
 Nuclear Repulsion      ENuc            ....    726.0924269338 Eh

Convergence Acceleration:
 AO-DIIS                CNVDIIS         .... on
   Start iteration      DIISMaxIt       ....    12
   Startup error        DIISStart       ....  0.200000
   # of expansion vecs  DIISMaxEq       ....     5
   Bias factor          DIISBfac        ....   1.050
   Max. coefficient     DIISMaxC        ....  10.000
 MO-DIIS                CNVKDIIS        .... off
 Trust-Rad. Augm. Hess. CNVTRAH         .... off
 SOSCF                  CNVSOSCF        .... on
   Start iteration      SOSCFMaxIt      ....   150
   Startup grad/error   SOSCFStart      ....  0.003300
   Hessian update       SOSCFHessUp     .... L-BFGS
 Level Shifting         CNVShift        .... on
   Level shift para.    LevelShift      ....    0.2500
   Turn off err/grad.   ShiftErr        ....    0.0010
 Zerner damping         CNVZerner       .... off
 Static damping         CNVDamp         .... on
   Fraction old density DampFac         ....    0.7000
   Max. Damping (<1)    DampMax         ....    0.9800
   Min. Damping (>=0)   DampMin         ....    0.0000
   Turn off err/grad.   DampErr         ....    0.1000

SCF Procedure:
 Maximum # iterations   MaxIter         ....   800
 SCF integral mode      SCFMode         .... Direct
   Integral package                     .... SHARK and LIBINT hybrid scheme
 Reset frequency        DirectResetFreq ....    20
 Integral Threshold     Thresh          ....  2.500e-11 Eh
 Primitive CutOff       TCut            ....  2.500e-12 Eh

Convergence Tolerance:
 Convergence Check Mode ConvCheckMode   .... Total+1el-Energy
 Convergence forced     ConvForced      .... 0
 Energy Change          TolE            ....  1.000e-08 Eh
 1-El. energy change                    ....  1.000e-05 Eh
 Orbital Gradient       TolG            ....  1.000e-05
 Orbital Rotation angle TolX            ....  1.000e-05
 DIIS Error             TolErr          ....  5.000e-07

--------------------------------
INITIAL GUESS: MINIMAL BASIS EHT
--------------------------------
The minimal basis has 71 functions
EHT matrix was diagonalized
Basis set overlap was calculated now projecting the orbitals
Using GuessMode=FMatrix for the initial guess
C*T matrix was formed
Effective Fockian was calculated
Effective Fockian was diagonalized
Initial density was built
                      ------------------
                      INITIAL GUESS DONE
                      ------------------
             **** ENERGY FILE WAS UPDATED (m1_00_Vitamin_B6-GFN1_000-B97-3C-TZ.en.tmp) ****
Finished Guess after   0.1 sec
Maximum memory used throughout the entire GUESS-calculation: 16.1 MB


           ************************************************************
           *        Program running with 16 parallel MPI-processes    *
           *              working on a common directory               *
           ************************************************************

-------------------------------------------------------------------------------------------
                                      ORCA LEAN-SCF
                              memory conserving SCF solver
-------------------------------------------------------------------------------------------

----------------------------------------D-I-I-S--------------------------------------------
Iteration    Energy (Eh)           Delta-E    RMSDP     MaxDP     DIISErr   Damp  Time(sec)
-------------------------------------------------------------------------------------------
               ***  Starting incremental Fock matrix formation  ***
    1    -589.6355615117895468     0.00e+00  8.36e-03  2.40e-01  4.53e-01  0.700   0.3
Warning: op=0 Small HOMO/LUMO gap (   0.084) - skipping pre-diagonalization
         Will do a full diagonalization
    2    -590.3039927340087161    -6.68e-01  7.65e-03  4.09e-01  3.20e-01  0.700   0.3
    3    -590.6641371832504319    -3.60e-01  3.78e-03  1.10e-01  2.27e-01  0.700   0.3
                               ***Turning on AO-DIIS***
    4    -590.9119795922501908    -2.48e-01  2.77e-03  1.32e-01  1.59e-01  0.700   0.3
    5    -591.0865368976753871    -1.75e-01  1.98e-03  9.95e-02  1.10e-01  0.700   0.3
    6    -591.2098448916196958    -1.23e-01  1.28e-03  5.34e-02  7.63e-02  0.700   0.3
    7    -591.2975741209884291    -8.77e-02  2.86e-03  7.57e-02  5.35e-02  0.000   0.3
    8    -591.5001338795202628    -2.03e-01  5.34e-04  2.81e-02  1.98e-02  0.000   0.3
                              *** Initializing SOSCF ***
---------------------------------------S-O-S-C-F--------------------------------------
Iteration    Energy (Eh)           Delta-E    RMSDP     MaxDP     MaxGrad    Time(sec)
--------------------------------------------------------------------------------------
    9    -591.5019989275419903    -1.87e-03  8.23e-05  4.19e-03  2.81e-03     0.3
               *** Restarting incremental Fock matrix formation ***
   10    -591.5020272971664781    -2.84e-05  9.21e-05  5.34e-03  2.99e-04     0.3
   11    -591.5020055433437847     2.18e-05  6.63e-05  3.09e-03  7.67e-04     0.3
   12    -591.5020346044620965    -2.91e-05  3.21e-05  1.61e-03  1.68e-04     0.3
   13    -591.5020318117358329     2.79e-06  2.51e-05  1.72e-03  4.40e-04     0.2
   14    -591.5020352863348307    -3.47e-06  8.93e-06  6.57e-04  2.94e-05     0.2
   15    -591.5020351947878225     9.15e-08  5.10e-06  3.58e-04  3.82e-05     0.2
   16    -591.5020353317968329    -1.37e-07  6.45e-06  3.22e-04  5.82e-06     0.2
   17    -591.5020353225988856     9.20e-09  2.72e-06  1.95e-04  1.19e-05     0.2
                 **** Energy Check signals convergence ****

               *****************************************************
               *                     SUCCESS                       *
               *           SCF CONVERGED AFTER  17 CYCLES          *
               *****************************************************

             **** ENERGY FILE WAS UPDATED (m1_00_Vitamin_B6-GFN1_000-B97-3C-TZ.en.tmp) ****

----------------
TOTAL SCF ENERGY
----------------

Total Energy       :       -591.50203532259889 Eh          -16095.58867 eV

Components:
Nuclear Repulsion  :        726.09242693384226 Eh           19757.97941 eV
Electronic Energy  :      -1317.59446225644115 Eh          -35853.56808 eV
One Electron Energy:      -2247.03195892177291 Eh          -61144.84815 eV
Two Electron Energy:        929.43749666533176 Eh           25291.28007 eV

Virial components:
Potential Energy   :      -1180.81444546271996 Eh          -32131.59460 eV
Kinetic Energy     :        589.31241014012096 Eh           16036.00593 eV
Virial Ratio       :          2.00371555925991

DFT components:
N(Alpha)           :       44.999994746558 electrons
N(Beta)            :       44.999994746558 electrons
N(Total)           :       89.999989493115 electrons
E(XC)              :      -79.798967073658 Eh       

---------------
SCF CONVERGENCE
---------------

  Last Energy change         ...   -9.1979e-09  Tolerance :   1.0000e-08
  Last MAX-Density change    ...    1.9493e-04  Tolerance :   1.0000e-07
  Last RMS-Density change    ...    2.7224e-06  Tolerance :   5.0000e-09
  Last DIIS Error            ...    2.8098e-03  Tolerance :   5.0000e-07
  Last Orbital Gradient      ...    1.1861e-05  Tolerance :   1.0000e-05
  Last Orbital Rotation      ...    2.2566e-05  Tolerance :   1.0000e-05


----------------
ORBITAL ENERGIES
----------------

  NO   OCC          E(Eh)            E(eV) 
   0   2.0000     -18.780504      -511.0435 
   1   2.0000     -18.770295      -510.7657 
   2   2.0000     -18.756839      -510.3995 
   3   2.0000     -13.975080      -380.2813 
   4   2.0000      -9.962566      -271.0952 
   5   2.0000      -9.956368      -270.9266 
   6   2.0000      -9.954007      -270.8623 
   7   2.0000      -9.923836      -270.0413 
   8   2.0000      -9.914974      -269.8002 
   9   2.0000      -9.914423      -269.7852 
  10   2.0000      -9.906716      -269.5754 
  11   2.0000      -9.877112      -268.7699 
  12   2.0000      -0.989579       -26.9278 
  13   2.0000      -0.968952       -26.3665 
  14   2.0000      -0.956780       -26.0353 
  15   2.0000      -0.866670       -23.5833 
  16   2.0000      -0.753647       -20.5078 
  17   2.0000      -0.711967       -19.3736 
  18   2.0000      -0.667931       -18.1753 
  19   2.0000      -0.643508       -17.5107 
  20   2.0000      -0.606803       -16.5119 
  21   2.0000      -0.577847       -15.7240 
  22   2.0000      -0.539236       -14.6734 
  23   2.0000      -0.514435       -13.9985 
  24   2.0000      -0.483952       -13.1690 
  25   2.0000      -0.465468       -12.6660 
  26   2.0000      -0.441770       -12.0212 
  27   2.0000      -0.433316       -11.7911 
  28   2.0000      -0.421869       -11.4796 
  29   2.0000      -0.408048       -11.1036 
  30   2.0000      -0.395609       -10.7651 
  31   2.0000      -0.389759       -10.6059 
  32   2.0000      -0.381998       -10.3947 
  33   2.0000      -0.351586        -9.5671 
  34   2.0000      -0.343291        -9.3414 
  35   2.0000      -0.335627        -9.1329 
  36   2.0000      -0.329038        -8.9536 
  37   2.0000      -0.318139        -8.6570 
  38   2.0000      -0.308614        -8.3978 
  39   2.0000      -0.304117        -8.2754 
  40   2.0000      -0.264521        -7.1980 
  41   2.0000      -0.254117        -6.9149 
  42   2.0000      -0.233950        -6.3661 
  43   2.0000      -0.206508        -5.6194 
  44   2.0000      -0.200189        -5.4474 
  45   0.0000      -0.055330        -1.5056 
  46   0.0000      -0.030603        -0.8328 
  47   0.0000      -0.005424        -0.1476 
  48   0.0000       0.012663         0.3446 
  49   0.0000       0.046424         1.2632 
  50   0.0000       0.054368         1.4794 
  51   0.0000       0.059233         1.6118 
  52   0.0000       0.071301         1.9402 
  53   0.0000       0.083255         2.2655 
  54   0.0000       0.092117         2.5066 
  55   0.0000       0.092743         2.5237 
*Only the first 10 virtual orbitals were printed.

                    ********************************
                    * MULLIKEN POPULATION ANALYSIS *
                    ********************************

-----------------------
MULLIKEN ATOMIC CHARGES
-----------------------
   0 O :   -0.541938
   1 O :   -0.622482
   2 O :   -0.556002
   3 N :   -0.039466
   4 C :   -0.039749
   5 C :    0.078126
   6 C :    0.431484
   7 C :   -0.060297
   8 C :   -0.185647
   9 C :   -0.408116
  10 C :   -0.225524
  11 C :   -0.552121
  12 H :    0.203509
  13 H :    0.174086
  14 H :    0.184635
  15 H :    0.177258
  16 H :    0.146738
  17 H :    0.169814
  18 H :    0.193241
  19 H :    0.168637
  20 H :    0.430910
  21 H :    0.443079
  22 H :    0.429826
Sum of atomic charges:    0.0000000

--------------------------------
MULLIKEN REDUCED ORBITAL CHARGES
--------------------------------
  0 O s       :     3.785212  s :     3.785212
      pz      :     1.612958  p :     4.719268
      px      :     1.328073
      py      :     1.778237
      dz2     :     0.007918  d :     0.037458
      dxz     :     0.008792
      dyz     :     0.009884
      dx2y2   :     0.002696
      dxy     :     0.008168

  1 O s       :     3.817868  s :     3.817868
      pz      :     1.719318  p :     4.757385
      px      :     1.716517
      py      :     1.321550
      dz2     :     0.002349  d :     0.047229
      dxz     :     0.007741
      dyz     :     0.013254
      dx2y2   :     0.017043
      dxy     :     0.006842

  2 O s       :     3.809860  s :     3.809860
      pz      :     1.687675  p :     4.712298
      px      :     1.624528
      py      :     1.400096
      dz2     :     0.005970  d :     0.033844
      dxz     :     0.005457
      dyz     :     0.011803
      dx2y2   :    -0.003370
      dxy     :     0.013985

  3 N s       :     3.441388  s :     3.441388
      pz      :     1.018363  p :     3.551084
      px      :     1.428869
      py      :     1.103851
      dz2     :     0.009068  d :     0.046995
      dxz     :     0.014169
      dyz     :     0.007661
      dx2y2   :     0.007445
      dxy     :     0.008652

  4 C s       :     3.265010  s :     3.265010
      pz      :     0.928696  p :     2.729540
      px      :     0.840812
      py      :     0.960033
      dz2     :     0.010570  d :     0.045198
      dxz     :     0.012220
      dyz     :     0.006637
      dx2y2   :     0.008392
      dxy     :     0.007380

  5 C s       :     3.142271  s :     3.142271
      pz      :     0.871885  p :     2.732939
      px      :     0.941384
      py      :     0.919671
      dz2     :     0.008578  d :     0.046663
      dxz     :     0.013551
      dyz     :     0.006555
      dx2y2   :     0.008688
      dxy     :     0.009291

  6 C s       :     3.023718  s :     3.023718
      pz      :     0.827449  p :     2.472244
      px      :     0.752002
      py      :     0.892793
      dz2     :     0.017679  d :     0.072554
      dxz     :     0.018643
      dyz     :     0.011014
      dx2y2   :     0.012057
      dxy     :     0.013161

  7 C s       :     3.183195  s :     3.183195
      pz      :     0.901126  p :     2.813359
      px      :     0.958020
      py      :     0.954213
      dz2     :     0.015605  d :     0.063744
      dxz     :     0.015642
      dyz     :     0.008883
      dx2y2   :     0.013202
      dxy     :     0.010412

  8 C s       :     3.181270  s :     3.181270
      pz      :     1.092806  p :     2.939789
      px      :     0.904150
      py      :     0.942834
      dz2     :     0.015865  d :     0.064587
      dxz     :     0.008259
      dyz     :     0.009454
      dx2y2   :     0.017746
      dxy     :     0.013262

  9 C s       :     3.361829  s :     3.361829
      pz      :     1.025468  p :     2.980221
      px      :     1.058269
      py      :     0.896484
      dz2     :     0.008191  d :     0.066066
      dxz     :     0.013250
      dyz     :     0.016645
      dx2y2   :     0.013304
      dxy     :     0.014675

 10 C s       :     3.207393  s :     3.207393
      pz      :     0.991135  p :     2.960349
      px      :     0.976890
      py      :     0.992324
      dz2     :     0.011196  d :     0.057783
      dxz     :     0.019374
      dyz     :     0.008173
      dx2y2   :     0.009111
      dxy     :     0.009930

 11 C s       :     3.266022  s :     3.266022
      pz      :     1.020141  p :     3.249340
      px      :     1.156225
      py      :     1.072973
      dz2     :     0.009865  d :     0.036759
      dxz     :     0.003759
      dyz     :     0.008854
      dx2y2   :     0.008426
      dxy     :     0.005855

 12 H s       :     0.796491  s :     0.796491

 13 H s       :     0.825914  s :     0.825914

 14 H s       :     0.815365  s :     0.815365

 15 H s       :     0.822742  s :     0.822742

 16 H s       :     0.853262  s :     0.853262

 17 H s       :     0.830186  s :     0.830186

 18 H s       :     0.806759  s :     0.806759

 19 H s       :     0.831363  s :     0.831363

 20 H s       :     0.569090  s :     0.569090

 21 H s       :     0.556921  s :     0.556921

 22 H s       :     0.570174  s :     0.570174



                     *******************************
                     * LOEWDIN POPULATION ANALYSIS *
                     *******************************

----------------------
LOEWDIN ATOMIC CHARGES
----------------------
   0 O :   -0.638225
   1 O :   -0.727890
   2 O :   -0.753904
   3 N :   -0.165483
   4 C :   -0.012609
   5 C :   -0.064905
   6 C :    0.199250
   7 C :    0.029606
   8 C :    0.049408
   9 C :    0.025376
  10 C :   -0.096484
  11 C :   -0.393861
  12 H :    0.199204
  13 H :    0.203391
  14 H :    0.184285
  15 H :    0.173285
  16 H :    0.157202
  17 H :    0.173167
  18 H :    0.167185
  19 H :    0.172687
  20 H :    0.388299
  21 H :    0.369040
  22 H :    0.361976

-------------------------------
LOEWDIN REDUCED ORBITAL CHARGES
-------------------------------
  0 O s       :     3.511827  s :     3.511827
      pz      :     1.644595  p :     4.781961
      px      :     1.370651
      py      :     1.766714
      dz2     :     0.073685  d :     0.344437
      dxz     :     0.097380
      dyz     :     0.050546
      dx2y2   :     0.069273
      dxy     :     0.053553

  1 O s       :     3.547300  s :     3.547300
      pz      :     1.716569  p :     4.829147
      px      :     1.718074
      py      :     1.394504
      dz2     :     0.062241  d :     0.351443
      dxz     :     0.062485
      dyz     :     0.066232
      dx2y2   :     0.099109
      dxy     :     0.061375

  2 O s       :     3.558407  s :     3.558407
      pz      :     1.699890  p :     4.852990
      px      :     1.679440
      py      :     1.473659
      dz2     :     0.035400  d :     0.342507
      dxz     :     0.049791
      dyz     :     0.087194
      dx2y2   :     0.079524
      dxy     :     0.090598

  3 N s       :     3.214096  s :     3.214096
      pz      :     1.178122  p :     3.863548
      px      :     1.526921
      py      :     1.158505
      dz2     :     0.019163  d :     0.087840
      dxz     :     0.026004
      dyz     :     0.017434
      dx2y2   :     0.012202
      dxy     :     0.013036

  4 C s       :     2.840881  s :     2.840881
      pz      :     1.035979  p :     3.079745
      px      :     1.037139
      py      :     1.006627
      dz2     :     0.021036  d :     0.091984
      dxz     :     0.025907
      dyz     :     0.013316
      dx2y2   :     0.017204
      dxy     :     0.014521

  5 C s       :     2.858227  s :     2.858227
      pz      :     1.029939  p :     3.110082
      px      :     1.089271
      py      :     0.990872
      dz2     :     0.017911  d :     0.096596
      dxz     :     0.028536
      dyz     :     0.013187
      dx2y2   :     0.018403
      dxy     :     0.018558

  6 C s       :     2.776507  s :     2.776507
      pz      :     0.950623  p :     2.864340
      px      :     0.971555
      py      :     0.942162
      dz2     :     0.037967  d :     0.159903
      dxz     :     0.043442
      dyz     :     0.024752
      dx2y2   :     0.026740
      dxy     :     0.027002

  7 C s       :     2.829108  s :     2.829108
      pz      :     1.013220  p :     3.007280
      px      :     1.028991
      py      :     0.965069
      dz2     :     0.031255  d :     0.134006
      dxz     :     0.034922
      dyz     :     0.017721
      dx2y2   :     0.029749
      dxy     :     0.020358

  8 C s       :     2.856127  s :     2.856127
      pz      :     1.048631  p :     2.967236
      px      :     0.947345
      py      :     0.971261
      dz2     :     0.029236  d :     0.127229
      dxz     :     0.016106
      dyz     :     0.018409
      dx2y2   :     0.035264
      dxy     :     0.028214

  9 C s       :     2.861092  s :     2.861092
      pz      :     1.034338  p :     2.983654
      px      :     1.021540
      py      :     0.927777
      dz2     :     0.016177  d :     0.129877
      dxz     :     0.023802
      dyz     :     0.032267
      dx2y2   :     0.025456
      dxy     :     0.032175

 10 C s       :     2.880981  s :     2.880981
      pz      :     1.023895  p :     3.097350
      px      :     1.071399
      py      :     1.002056
      dz2     :     0.022402  d :     0.118154
      dxz     :     0.039903
      dyz     :     0.017217
      dx2y2   :     0.017960
      dxy     :     0.020672

 11 C s       :     2.976579  s :     2.976579
      pz      :     1.092657  p :     3.357316
      px      :     1.141128
      py      :     1.123531
      dz2     :     0.016666  d :     0.059966
      dxz     :     0.006326
      dyz     :     0.014892
      dx2y2   :     0.013353
      dxy     :     0.008728

 12 H s       :     0.800796  s :     0.800796

 13 H s       :     0.796609  s :     0.796609

 14 H s       :     0.815715  s :     0.815715

 15 H s       :     0.826715  s :     0.826715

 16 H s       :     0.842798  s :     0.842798

 17 H s       :     0.826833  s :     0.826833

 18 H s       :     0.832815  s :     0.832815

 19 H s       :     0.827313  s :     0.827313

 20 H s       :     0.611701  s :     0.611701

 21 H s       :     0.630960  s :     0.630960

 22 H s       :     0.638024  s :     0.638024



                      *****************************
                      * MAYER POPULATION ANALYSIS *
                      *****************************

  NA   - Mulliken gross atomic population
  ZA   - Total nuclear charge
  QA   - Mulliken gross atomic charge
  VA   - Mayer's total valence
  BVA  - Mayer's bonded valence
  FA   - Mayer's free valence

  ATOM       NA         ZA         QA         VA         BVA        FA
  0 O      8.5419     8.0000    -0.5419     1.9120     1.9120     0.0000
  1 O      8.6225     8.0000    -0.6225     1.7914     1.7914    -0.0000
  2 O      8.5560     8.0000    -0.5560     1.7411     1.7411    -0.0000
  3 N      7.0395     7.0000    -0.0395     3.2271     3.2271     0.0000
  4 C      6.0397     6.0000    -0.0397     3.3845     3.3845     0.0000
  5 C      5.9219     6.0000     0.0781     3.3366     3.3366     0.0000
  6 C      5.5685     6.0000     0.4315     3.6097     3.6097    -0.0000
  7 C      6.0603     6.0000    -0.0603     3.8603     3.8603    -0.0000
  8 C      6.1856     6.0000    -0.1856     3.7449     3.7449     0.0000
  9 C      6.4081     6.0000    -0.4081     3.8982     3.8982    -0.0000
 10 C      6.2255     6.0000    -0.2255     4.0242     4.0242     0.0000
 11 C      6.5521     6.0000    -0.5521     3.7289     3.7289     0.0000
 12 H      0.7965     1.0000     0.2035     0.9407     0.9407     0.0000
 13 H      0.8259     1.0000     0.1741     0.9634     0.9634     0.0000
 14 H      0.8154     1.0000     0.1846     0.9203     0.9203     0.0000
 15 H      0.8227     1.0000     0.1773     0.9341     0.9341    -0.0000
 16 H      0.8533     1.0000     0.1467     0.9513     0.9513     0.0000
 17 H      0.8302     1.0000     0.1698     0.9522     0.9522     0.0000
 18 H      0.8068     1.0000     0.1932     0.9595     0.9595    -0.0000
 19 H      0.8314     1.0000     0.1686     0.9526     0.9526     0.0000
 20 H      0.5691     1.0000     0.4309     0.8266     0.8266     0.0000
 21 H      0.5569     1.0000     0.4431     0.7743     0.7743    -0.0000
 22 H      0.5702     1.0000     0.4298     0.7890     0.7890    -0.0000

  Mayer bond orders larger than 0.100000
B(  0-O ,  6-C ) :   1.1348 B(  0-O , 20-H ) :   0.6715 B(  1-O ,  8-C ) :   1.0007 
B(  1-O , 20-H ) :   0.1455 B(  1-O , 21-H ) :   0.7638 B(  2-O ,  9-C ) :   1.0268 
B(  2-O , 22-H ) :   0.7670 B(  3-N ,  7-C ) :   1.6787 B(  3-N , 10-C ) :   1.5170 
B(  4-C ,  5-C ) :   1.2044 B(  4-C ,  6-C ) :   1.3394 B(  4-C ,  8-C ) :   0.9650 
B(  5-C ,  9-C ) :   0.9036 B(  5-C , 10-C ) :   1.3745 B(  6-C ,  7-C ) :   1.3128 
B(  7-C , 11-C ) :   0.8814 B(  8-C , 12-H ) :   0.9560 B(  8-C , 13-H ) :   0.9340 
B(  9-C , 14-H ) :   0.9558 B(  9-C , 15-H ) :   0.9654 B( 10-C , 16-H ) :   0.9537 
B( 11-C , 17-H ) :   0.9489 B( 11-C , 18-H ) :   0.9717 B( 11-C , 19-H ) :   0.9522 



------------------
HIRSHFELD ANALYSIS
------------------

Total integrated alpha density =     44.999994747
Total integrated beta density  =     44.999994747

  ATOM     CHARGE      SPIN    
   0 O   -0.198715    0.000000
   1 O   -0.197667    0.000000
   2 O   -0.228139    0.000000
   3 N   -0.192781    0.000000
   4 C   -0.028927    0.000000
   5 C   -0.026735    0.000000
   6 C    0.065614    0.000000
   7 C    0.055334    0.000000
   8 C    0.039467    0.000000
   9 C    0.036696    0.000000
  10 C   -0.000586    0.000000
  11 C   -0.078982    0.000000
  12 H    0.035438    0.000000
  13 H    0.043976    0.000000
  14 H    0.038062    0.000000
  15 H    0.029666    0.000000
  16 H    0.034551    0.000000
  17 H    0.035729    0.000000
  18 H    0.035826    0.000000
  19 H    0.034483    0.000000
  20 H    0.134505    0.000000
  21 H    0.172204    0.000000
  22 H    0.160990    0.000000

  TOTAL   0.000011    0.000000

-------
TIMINGS
-------

Total SCF time: 0 days 0 hours 0 min 5 sec 

Total time                  ....       5.204 sec
Sum of individual times     ....       5.141 sec  ( 98.8%)

SCF preparation             ....       0.127 sec  (  2.5%)
Fock matrix formation       ....       4.214 sec  ( 81.0%)
  Startup                   ....       0.012 sec  (  0.3% of F)
  Split-RI-J                ....       0.671 sec  ( 15.9% of F)
  XC integration            ....       3.319 sec  ( 78.8% of F)
    XC Preparation          ....       0.000 sec  (  0.0% of XC)
    Basis function eval.    ....       0.852 sec  ( 25.7% of XC)
    Density eval.           ....       0.705 sec  ( 21.2% of XC)
    XC-Functional eval.     ....       0.109 sec  (  3.3% of XC)
    XC-Potential eval.      ....       0.676 sec  ( 20.4% of XC)
Diagonalization             ....       0.000 sec  (  0.0%)
Density matrix formation    ....       0.038 sec  (  0.7%)
Total Energy calculation    ....       0.023 sec  (  0.4%)
Population analysis         ....       0.390 sec  (  7.5%)
Orbital Transformation      ....       0.036 sec  (  0.7%)
Orbital Orthonormalization  ....       0.000 sec  (  0.0%)
DIIS solution               ....       0.210 sec  (  4.0%)
SOSCF solution              ....       0.104 sec  (  2.0%)
Finished LeanSCF after   5.2 sec

Maximum memory used throughout the entire LEANSCF-calculation: 43.3 MB


           ************************************************************
           *        Program running with 16 parallel MPI-processes    *
           *              working on a common directory               *
           ************************************************************

------------------------------------------------------------------------------
                         ORCA PROPERTY INTEGRAL CALCULATIONS
------------------------------------------------------------------------------

GBWName                                   ... m1_00_Vitamin_B6-GFN1_000-B97-3C-TZ.gbw
Number of atoms                           ...     23
Number of basis functions                 ...    276
Max core memory                           ...   6000 MB

Dipole integrals                          ... YES
Quadrupole integrals                      ...  NO
Linear momentum integrals                 ...  NO
Angular momentum integrals                ...  NO
Higher moments length integrals           ...  NO
Higher moments velocity integrals         ...  NO
Kinetic energy integrals                  ...  NO
GIAO right hand sides                     ...  NO
GIAO dipole derivative integrals          ...  NO
SOC integrals                             ...  NO
EPR diamagnetic integrals (GIAO)          ...  NO
EPR gauge integrals                       ...  NO
Field gradient integrals                  ...  NO (   0 nuclei)
Spin-dipole/Fermi contact integrals       ...  NO (   0 nuclei)
Contact density integrals                 ...  NO (   0 nuclei)
Nucleus-orbit integrals                   ...  NO (   0 nuclei)
Geometric perturbations                   ...  NO (  23 nuclei)

Choice of electric origin   ... Center of mass
Position of electric origin ... (  2.3529, -0.8223, -0.0642) 
Choice of magnetic origin   ... GIAO
Position of magnetic origin ... (  0.0000,  0.0000,  0.0000) 

Calculating integrals                     ... Electric Dipole (Length)     done (  0.0 sec)

Property integrals calculated in   0.0 sec

Maximum memory used throughout the entire PROPINT-calculation: 16.6 MB


-------------------------------------------------------------------------------
                          DFT DISPERSION CORRECTION                            
                                                                               
                              DFTD3 V3.1  Rev 1                                
                          USING Becke-Johnson damping                          
-------------------------------------------------------------------------------
The B97-3c composite method is recognized
Using three-body term ABC
Active option DFTDOPT                   ...         4   

molecular C6(AA) [au] = 5025.136294 


            DFT-D V3
 parameters
 s6 scaling factor         :     1.0000 
 a1 scaling factor         :     0.3700 
 s8 scaling factor         :     1.5000 
 a2 scaling factor         :     4.1000 
 Damping factor alpha9(ATM):    16.0000 
 ad hoc parameters k1-k3   :    16.0000     1.3333    -4.0000 

 Edisp/kcal,au: -34.568065025526  -0.055087712245 
 E6   /kcal   : -17.613035382 
 E8   /kcal   : -17.010621927 
 E6(ABC)      :   0.055592283 
 % E8         :  49.209065982 
 % E6(ABC)    :  -0.160819771 

-------------------------   ----------------
Dispersion correction           -0.055087712
-------------------------   ----------------

------------------   -----------------
SRB correction            -0.067006401
------------------   -----------------

-------------------------   --------------------
FINAL SINGLE POINT ENERGY      -591.624129435844
-------------------------   --------------------



           ************************************************************
           *        Program running with 16 parallel MPI-processes    *
           *              working on a common directory               *
           ************************************************************
------------------------------------------------------------------------------
                         ORCA SCF GRADIENT CALCULATION
------------------------------------------------------------------------------

Nuc. rep. gradient        (SHARK) ... done (  0.0 sec)
HCore & Overlap gradient  (SHARK) ... done (  0.0 sec)
Split-RIJ-J gradient      (SHARK) ... done (  0.1 sec)
XC gradient                       ... done (  1.5 sec)
Dispersion correction             ... done (  0.0 sec)

-------------------
DISPERSION GRADIENT
-------------------

   1   O   :    0.000493291   -0.000276237    0.000709073
   2   O   :    0.000800153   -0.000139180   -0.000046658
   3   O   :    0.000065547    0.000804469   -0.000504896
   4   N   :   -0.001004772   -0.000040589   -0.000149299
   5   C   :    0.000452384   -0.000074127    0.000142040
   6   C   :   -0.000561237    0.000178559   -0.000626657
   7   C   :    0.000141420   -0.000280439    0.000615504
   8   C   :   -0.000587557   -0.000382503    0.000543348
   9   C   :    0.001144137    0.000038708    0.000015899
  10   C   :   -0.000144938    0.000516296   -0.000932247
  11   C   :   -0.001108678   -0.000027023   -0.000284778
  12   C   :   -0.000457232   -0.000445640    0.000677444
  13   H   :    0.000545464   -0.000012419   -0.000221137
  14   H   :    0.000548424    0.000361387    0.000147995
  15   H   :    0.000036906    0.000009364   -0.000627779
  16   H   :   -0.000134620    0.000206139   -0.000406424
  17   H   :   -0.000524537    0.000032164   -0.000175799
  18   H   :   -0.000172068   -0.000065754    0.000470431
  19   H   :   -0.000266440   -0.000184193    0.000253879
  20   H   :   -0.000131488   -0.000398352    0.000280466
  21   H   :    0.000379117   -0.000163189    0.000362612
  22   H   :    0.000489756   -0.000325799   -0.000155354
  23   H   :   -0.000003034    0.000668357   -0.000087662

Difference to translation invariance:
           :    0.0000000000    0.0000000000    0.0000000000

Difference to rotation invariance:
           :   -0.0000000000    0.0000000000    0.0000000000

Norm of the Dispersion gradient    ...    0.0037198394
RMS gradient                       ...    0.0004478160
MAX gradient                       ...    0.0011441366
SRB correction                   ... done

------------------
CARTESIAN GRADIENT
------------------

   1   O   :   -0.002360523    0.000390707   -0.006358954
   2   O   :   -0.010037868    0.005706813   -0.006877602
   3   O   :   -0.007535697   -0.009016854    0.003247626
   4   N   :    0.005840245   -0.000964774    0.002004410
   5   C   :   -0.000235025   -0.002486455    0.002922676
   6   C   :    0.001616373   -0.002977172    0.009333121
   7   C   :   -0.004886610   -0.001471425    0.002261377
   8   C   :    0.002525910    0.004523264   -0.005740429
   9   C   :    0.011474631   -0.002978919    0.006158243
  10   C   :    0.008404119    0.006454367   -0.007561846
  11   C   :   -0.005352313   -0.000657831   -0.000387939
  12   C   :   -0.001541307   -0.002066962    0.003677538
  13   H   :    0.000705324   -0.002190104   -0.006902962
  14   H   :   -0.001471963    0.005574169    0.003166836
  15   H   :    0.001430631   -0.004626670   -0.001885577
  16   H   :   -0.004067902    0.004360174   -0.000935368
  17   H   :   -0.001278732   -0.000142452   -0.000600718
  18   H   :    0.000064553    0.002503807   -0.000468305
  19   H   :   -0.002641197   -0.000944776    0.000858003
  20   H   :    0.000585868   -0.000890520   -0.002375758
  21   H   :    0.004448491    0.000517446    0.004117061
  22   H   :    0.001816893   -0.002389316    0.000986041
  23   H   :    0.002496100    0.003773486    0.001362526

Difference to translation invariance:
           :   -0.0000000000    0.0000000000    0.0000000000

Difference to rotation invariance:
           :    0.0000301130    0.0000236508   -0.0000247874

Norm of the Cartesian gradient     ...    0.0356229928
RMS gradient                       ...    0.0042885044
MAX gradient                       ...    0.0114746309

-------
TIMINGS
-------

Total SCF gradient time     ....        1.758 sec

Densities                   ....       0.001 sec  (  0.1%)
One electron gradient       ....       0.036 sec  (  2.0%)
RI-J Coulomb gradient       ....       0.125 sec  (  7.1%)
XC gradient                 ....       1.538 sec  ( 87.4%)

Maximum memory used throughout the entire SCFGRAD-calculation: 51.5 MB
------------------------------------------------------------------------------
                         ORCA GEOMETRY RELAXATION STEP
------------------------------------------------------------------------------

Reading the OPT-File                    .... done
Getting information on internals        .... done
Copying old internal coords+grads       .... done
Making the new internal coordinates     .... (2022 redundants) done
Validating the new internal coordinates .... (2022 redundants) done
Calculating the B-matrix                .... done
Calculating the G,G- and P matrices     .... done
Transforming gradient to internals      .... done
Projecting the internal gradient        .... done
Number of atoms                         ....  23
Number of internal coordinates          .... 104
Current Energy                          ....  -591.624129436 Eh
Current gradient norm                   ....     0.035622993 Eh/bohr
Maximum allowed component of the step   ....  0.300
Current trust radius                    ....  0.300
Evaluating the initial hessian          ....  (Almloef) done
Projecting the Hessian                  .... done
Forming the augmented Hessian           .... done
Diagonalizing the augmented Hessian     .... done
Last element of RFO vector              ....  0.954872860
Lowest eigenvalues of augmented Hessian:
 -0.003728283  0.012485347  0.012888303  0.013308199  0.020261033
Length of the computed step             ....  0.311051724
Warning: the length of the step is outside the trust region - taking restricted step instead
The input lambda is                     ....     0.010442
   iter:   5  x=    0.004151  g=  291.305124 f(x)=     0.667525
   iter:  10  x=   -0.004368  g=   10.002707 f(x)=     0.000299
The output lambda is                    ....    -0.004368 (13 iterations)
The final length of the internal step   ....  0.300000000
Converting the step to Cartesian space:
 Initial RMS(Int)=    0.0294174203
Transforming coordinates:
 Iter   0:  RMS(Cart)=    0.0867012259 RMS(Int)=    1.2241952934
 Iter   5:  RMS(Cart)=    0.0000010595 RMS(Int)=    0.0000006764
done
Storing new coordinates                 .... done

                                .--------------------.
          ----------------------|Geometry convergence|-------------------------
          Item                value                   Tolerance       Converged
          ---------------------------------------------------------------------
          RMS gradient        0.0028389557            0.0000300000      NO
          MAX gradient        0.0096344088            0.0001000000      NO
          RMS step            0.0294174203            0.0020000000      NO
          MAX step            0.1292141965            0.0040000000      NO
          ........................................................
          Max(Bonds)      0.0134      Max(Angles)    1.52
          Max(Dihed)        7.40      Max(Improp)    0.00
          ---------------------------------------------------------------------

The optimization has not yet converged - more geometry cycles are needed


    ---------------------------------------------------------------------------
                         Redundant Internal Coordinates
                            (Angstroem and degrees)

        Definition                    Value    dE/dq     Step     New-Value
    ----------------------------------------------------------------------------
     1. B(C   5,C   4)                1.4020 -0.001226  0.0009    1.4029   
     2. B(C   6,O   0)                1.3540 -0.000905  0.0006    1.3546   
     3. B(C   6,C   4)                1.3954 -0.002329  0.0013    1.3966   
     4. B(C   7,C   6)                1.4040 -0.001772  0.0016    1.4056   
     5. B(C   7,N   3)                1.3230 -0.003890  0.0030    1.3260   
     6. B(C   8,C   4)                1.5190  0.002915 -0.0046    1.5144   
     7. B(C   8,O   1)                1.4194 -0.009634  0.0101    1.4295   
     8. B(C   9,C   5)                1.5167  0.005386 -0.0072    1.5095   
     9. B(C   9,O   2)                1.4144 -0.006158  0.0063    1.4208   
    10. B(C  10,C   5)                1.3877  0.002605 -0.0022    1.3855   
    11. B(C  10,N   3)                1.3313 -0.001884  0.0016    1.3328   
    12. B(C  11,C   7)                1.4998  0.003080 -0.0039    1.4959   
    13. B(H  12,C   8)                1.0987  0.006747 -0.0101    1.0886   
    14. B(H  13,C   8)                1.0971  0.005922 -0.0088    1.0883   
    15. B(H  14,C   9)                1.0981  0.004553 -0.0068    1.0913   
    16. B(H  15,C   9)                1.1021  0.005168 -0.0078    1.0942   
    17. B(H  16,C  10)                1.0863  0.001273 -0.0018    1.0845   
    18. B(H  17,C  11)                1.0913  0.000892 -0.0013    1.0900   
    19. B(H  18,C  11)                1.0886  0.002739 -0.0040    1.0847   
    20. B(H  19,C  11)                1.0912  0.000988 -0.0014    1.0897   
    21. B(H  20,O   1)                1.8333  0.001341 -0.0134    1.8199   
    22. B(H  20,O   0)                0.9792  0.004121 -0.0039    0.9753   
    23. B(H  21,O   1)                0.9658  0.001476 -0.0015    0.9642   
    24. B(H  22,O   2)                0.9657  0.002029 -0.0021    0.9636   
[...]
     35      -0.000113  -0.000001   0.000015
     36       0.004344   0.002415  -0.000003
     37      -0.006050  -0.001487   0.000090
     38       0.006893  -0.002584  -0.000633
     39       0.000990  -0.004757   0.000037
     40      -0.005749  -0.010188  -0.000047
     41      -0.003150  -0.010990   0.000124
     42       0.001923   0.000251  -0.011747
     43      -0.000912  -0.000267   0.005747
     44      -0.002157  -0.000287   0.007625
     45       0.000821   0.000325   0.000841
     46       0.000014  -0.000139   0.002847
     47       0.000016   0.000168   0.000140
     48       0.000718   0.000368  -0.000089
     49      -0.000063  -0.000057   0.000312
     50       0.000071   0.000155   0.000308
     51       0.000738  -0.000003  -0.000031
     52       0.000121   0.000025  -0.000053
     53       0.000493  -0.000012  -0.000090
     54      -0.002348   0.000123   0.000081
     55       0.000076   0.000013   0.000011
     56      -0.000514  -0.000021  -0.000003
     57       0.000942  -0.000034   0.000004
     58      -0.000644   0.000059   0.000039
     59       0.000234  -0.000048  -0.000066
     60      -0.930044  -0.016159  -0.000156
     61      -0.024096  -0.000166  -0.000019
     62       0.360465   0.010229   0.000237
     63       0.001080  -0.185835  -0.003586
     64       0.010461  -0.758158  -0.014824
     65       0.017459  -0.621088  -0.012174
     66      -0.000299   0.011967  -0.609752
     67      -0.000468  -0.009302   0.480054
     68       0.000336  -0.012298   0.627078


-----------
IR SPECTRUM
-----------

 Mode   freq       eps      Int      T**2         TX        TY        TZ
       cm**-1   L/(mol*cm) km/mol    a.u.
----------------------------------------------------------------------------
  6:     79.38   0.000306    1.55  0.001205  (-0.010377 -0.030260  0.013468)
  7:     97.97   0.000065    0.33  0.000206  (-0.009262 -0.007762  0.007769)
  8:    100.85   0.000729    3.68  0.002255  (-0.043971  0.009780  0.015039)
  9:    121.84   0.000866    4.38  0.002218  (-0.014234  0.044843  0.002152)
 10:    124.75   0.000460    2.32  0.001150  ( 0.022307 -0.025549 -0.000065)
 11:    199.50   0.000563    2.85  0.000881  (-0.007860 -0.027322 -0.008528)
 12:    248.83   0.000865    4.37  0.001084  ( 0.029373 -0.003236 -0.014523)
 13:    272.06   0.000509    2.57  0.000584  ( 0.008376 -0.004216  0.022270)
 14:    295.60   0.006562   33.16  0.006928  (-0.039184  0.045982 -0.057253)
 15:    323.20   0.003742   18.91  0.003613  (-0.023929  0.022039 -0.050540)
 16:    341.73   0.013264   67.03  0.012113  ( 0.023772 -0.053092  0.093429)
 17:    376.41   0.006857   34.65  0.005685  ( 0.058485 -0.047146 -0.006461)
 18:    390.84   0.002108   10.65  0.001683  (-0.024093 -0.010225  0.031588)
 19:    441.20   0.018633   94.16  0.013179  ( 0.077468  0.006010 -0.084509)
 20:    506.60   0.001334    6.74  0.000821  (-0.018566 -0.003068  0.021619)
 21:    534.69   0.000399    2.01  0.000233  ( 0.010444 -0.000598  0.011101)
 22:    539.95   0.002276   11.50  0.001315  ( 0.029673 -0.020363 -0.004477)
 23:    581.16   0.002076   10.49  0.001115  (-0.027471 -0.005513 -0.018157)
 24:    631.12   0.000696    3.52  0.000344  ( 0.007022  0.015510  0.007372)
 25:    677.66   0.001340    6.77  0.000617  ( 0.005637  0.010257 -0.021909)
 26:    743.55   0.000359    1.81  0.000151  (-0.006477 -0.004779 -0.009263)
 27:    770.55   0.007145   36.11  0.002893  ( 0.022415  0.030741  0.038027)
 28:    783.26   0.007571   38.26  0.003016  (-0.041526 -0.035924 -0.001226)
 29:    882.55   0.003258   16.46  0.001152  ( 0.004538 -0.033499 -0.003042)
 30:    911.07   0.003432   17.34  0.001176  ( 0.025699 -0.022332  0.004049)
 31:    946.78   0.001823    9.21  0.000601  (-0.001763 -0.024053 -0.004400)
 32:    964.72   0.006028   30.46  0.001950  (-0.006920 -0.043602  0.000939)
 33:    987.70   0.015630   78.99  0.004938  (-0.043917  0.053572 -0.011818)
 34:   1009.41   0.016443   83.10  0.005083  ( 0.033109  0.061403 -0.014732)
 35:   1025.22   0.002725   13.77  0.000829  (-0.008961 -0.002985  0.027208)
 36:   1047.28   0.000391    1.97  0.000116  ( 0.002432 -0.008617 -0.006017)
 37:   1086.73   0.002901   14.66  0.000833  ( 0.023424  0.009152  0.014161)
 38:   1191.32   0.004082   20.63  0.001069  ( 0.000024  0.032589 -0.002705)
 39:   1199.92   0.001189    6.01  0.000309  ( 0.000706 -0.017335  0.002878)
 40:   1250.48   0.018418   93.08  0.004596  (-0.050093  0.019894 -0.041124)
 41:   1262.26   0.004571   23.10  0.001130  (-0.003993 -0.017418  0.028475)
 42:   1299.18   0.001128    5.70  0.000271  ( 0.014693 -0.002441 -0.007007)
 43:   1316.04   0.002467   12.47  0.000585  (-0.010250 -0.005267  0.021266)
 44:   1358.33   0.009047   45.72  0.002079  ( 0.003648 -0.028136  0.035687)
 45:   1365.91   0.007564   38.23  0.001728  (-0.020457  0.015768 -0.032574)
 46:   1380.43   0.021788  110.11  0.004925  (-0.020306  0.028226 -0.060962)
 47:   1393.30   0.006043   30.54  0.001353  (-0.034474  0.012303  0.003689)
 48:   1407.53   0.006046   30.56  0.001341  ( 0.007835  0.024595 -0.025966)
 49:   1410.00   0.011501   58.12  0.002546  ( 0.007226  0.045967 -0.019501)
 50:   1439.88   0.011325   57.23  0.002455  (-0.039191  0.012154 -0.027764)
 51:   1480.07   0.002242   11.33  0.000473  (-0.011025 -0.007421 -0.017205)
 52:   1482.80   0.002198   11.11  0.000462  ( 0.011963 -0.017429  0.003952)
 53:   1487.83   0.001025    5.18  0.000215  (-0.012097 -0.008124  0.001608)
 54:   1513.96   0.000125    0.63  0.000026  (-0.000261  0.001227 -0.004920)
 55:   1520.24   0.001312    6.63  0.000269  ( 0.000148 -0.002782  0.016172)
 56:   1582.54   0.004188   21.16  0.000826  ( 0.027818 -0.006203  0.003676)
 57:   1619.60   0.001240    6.27  0.000239  (-0.013994 -0.006501  0.000892)
 58:   2974.94   0.011635   58.80  0.001220  ( 0.016566  0.005728  0.030220)
 59:   3003.76   0.004427   22.37  0.000460  (-0.004583 -0.010485  0.018137)
 60:   3026.63   0.004035   20.39  0.000416  ( 0.005113  0.019669 -0.001742)
 61:   3028.92   0.005414   27.36  0.000558  ( 0.020199 -0.005590 -0.010888)
 62:   3053.28   0.003297   16.66  0.000337  ( 0.001243 -0.016208 -0.008528)
 63:   3075.31   0.002884   14.57  0.000293  ( 0.002286  0.003034 -0.016680)
 64:   3095.41   0.006959   35.17  0.000702  ( 0.015186 -0.009301  0.019607)
 65:   3116.71   0.002534   12.81  0.000254  (-0.015621 -0.002457  0.001926)
 66:   3465.99   0.059809  302.25  0.005385  (-0.069408  0.003594  0.023549)
 67:   3731.14   0.004467   22.57  0.000374  ( 0.005067 -0.016516 -0.008668)
 68:   3734.02   0.002922   14.77  0.000244  (-0.004110  0.013670  0.006359)

* The epsilon (eps) is given for a Dirac delta lineshape.
** The dipole moment derivative (T) already includes vibrational overlap.

The first frequency considered to be a vibration is 6
The total number of vibrations considered is 63


--------------------------
THERMOCHEMISTRY AT 298.15K
--------------------------

Temperature         ...   298.15 K
Pressure            ...     1.00 atm
Total Mass          ...   169.18 AMU
Quasi RRHO          ...     True
Cut-Off Frequency   ...     1.00 cm^-1

Throughout the following assumptions are being made:
  (1) The electronic state is orbitally nondegenerate
  (2) There are no thermally accessible electronically excited states
  (3) Hindered rotations indicated by low frequency modes are not
      treated as such but are treated as vibrations and this may
      cause some error
  (4) All equations used are the standard statistical mechanics
      equations for an ideal gas
  (5) All vibrations are strictly harmonic

freq.      79.38  E(vib)   ...       0.49 
freq.      97.97  E(vib)   ...       0.46 
freq.     100.85  E(vib)   ...       0.46 
freq.     121.84  E(vib)   ...       0.44 
freq.     124.75  E(vib)   ...       0.43 
freq.     199.50  E(vib)   ...       0.35 
freq.     248.83  E(vib)   ...       0.31 
freq.     272.06  E(vib)   ...       0.29 
freq.     295.60  E(vib)   ...       0.27 
freq.     323.20  E(vib)   ...       0.25 
freq.     341.73  E(vib)   ...       0.23 
freq.     376.41  E(vib)   ...       0.21 
freq.     390.84  E(vib)   ...       0.20 
freq.     441.20  E(vib)   ...       0.17 
freq.     506.60  E(vib)   ...       0.14 
freq.     534.69  E(vib)   ...       0.13 
freq.     539.95  E(vib)   ...       0.12 
freq.     581.16  E(vib)   ...       0.11 
freq.     631.12  E(vib)   ...       0.09 
freq.     677.66  E(vib)   ...       0.08 
freq.     743.55  E(vib)   ...       0.06 
freq.     770.55  E(vib)   ...       0.05 
freq.     783.26  E(vib)   ...       0.05 
freq.     882.55  E(vib)   ...       0.04 
freq.     911.07  E(vib)   ...       0.03 
freq.     946.78  E(vib)   ...       0.03 
freq.     964.72  E(vib)   ...       0.03 
freq.     987.70  E(vib)   ...       0.02 
freq.    1009.41  E(vib)   ...       0.02 
freq.    1025.22  E(vib)   ...       0.02 
freq.    1047.28  E(vib)   ...       0.02 
freq.    1086.73  E(vib)   ...       0.02 
freq.    1191.32  E(vib)   ...       0.01 
freq.    1199.92  E(vib)   ...       0.01 
freq.    1250.48  E(vib)   ...       0.01 
freq.    1262.26  E(vib)   ...       0.01 
freq.    1299.18  E(vib)   ...       0.01 
freq.    1316.04  E(vib)   ...       0.01 
freq.    1358.33  E(vib)   ...       0.01 
freq.    1365.91  E(vib)   ...       0.01 
freq.    1380.43  E(vib)   ...       0.01 
freq.    1393.30  E(vib)   ...       0.00 
freq.    1407.53  E(vib)   ...       0.00 
freq.    1410.00  E(vib)   ...       0.00 
freq.    1439.88  E(vib)   ...       0.00 
freq.    1480.07  E(vib)   ...       0.00 
freq.    1482.80  E(vib)   ...       0.00 
freq.    1487.83  E(vib)   ...       0.00 
freq.    1513.96  E(vib)   ...       0.00 
freq.    1520.24  E(vib)   ...       0.00 
freq.    1582.54  E(vib)   ...       0.00 
freq.    1619.60  E(vib)   ...       0.00 
freq.    2974.94  E(vib)   ...       0.00 
freq.    3003.76  E(vib)   ...       0.00 
freq.    3026.63  E(vib)   ...       0.00 
freq.    3028.92  E(vib)   ...       0.00 
freq.    3053.28  E(vib)   ...       0.00 
freq.    3075.31  E(vib)   ...       0.00 
freq.    3095.41  E(vib)   ...       0.00 
freq.    3116.71  E(vib)   ...       0.00 
freq.    3465.99  E(vib)   ...       0.00 
freq.    3731.14  E(vib)   ...       0.00 
freq.    3734.02  E(vib)   ...       0.00 

------------
INNER ENERGY
------------

The inner energy is: U= E(el) + E(ZPE) + E(vib) + E(rot) + E(trans)
    E(el)   - is the total energy from the electronic structure calculation
              = E(kin-el) + E(nuc-el) + E(el-el) + E(nuc-nuc)
    E(ZPE)  - the the zero temperature vibrational energy from the frequency calculation
    E(vib)  - the the finite temperature correction to E(ZPE) due to population
              of excited vibrational states
    E(rot)  - is the rotational thermal energy
    E(trans)- is the translational thermal energy

Summary of contributions to the inner energy U:
Electronic energy                ...   -591.62754489 Eh
Zero point energy                ...      0.18524214 Eh     116.24 kcal/mol
Thermal vibrational correction   ...      0.00909313 Eh       5.71 kcal/mol
Thermal rotational correction    ...      0.00141627 Eh       0.89 kcal/mol
Thermal translational correction ...      0.00141627 Eh       0.89 kcal/mol
-----------------------------------------------------------------------
Total thermal energy                   -591.43037708 Eh


Summary of corrections to the electronic energy:
(perhaps to be used in another calculation)
Total thermal correction                  0.01192567 Eh       7.48 kcal/mol
Non-thermal (ZPE) correction              0.18524214 Eh     116.24 kcal/mol
-----------------------------------------------------------------------
Total correction                          0.19716781 Eh     123.72 kcal/mol


--------
ENTHALPY
--------

The enthalpy is H = U + kB*T
                kB is Boltzmann's constant
Total thermal energy              ...   -591.43037708 Eh 
Thermal Enthalpy correction       ...      0.00094421 Eh       0.59 kcal/mol
-----------------------------------------------------------------------
Total Enthalpy                    ...   -591.42943287 Eh


Note: Only C1 symmetry has been detected, increase convergence thresholds 
      if your molecule has a higher symmetry. Symmetry factor of 1.0 is   
      used for the rotational entropy correction. 
 

Note: Rotational entropy computed according to Herzberg 
Infrared and Raman Spectra, Chapter V,1, Van Nostrand Reinhold, 1945 
Point Group:  C1, Symmetry Number:   1  
Rotational constants in cm-1:     0.041258     0.027580     0.017609 

Vibrational entropy computed according to the QRRHO of S. Grimme
Chem.Eur.J. 2012 18 9955 using a reference frequency of 100.0 cm-1


-------
ENTROPY
-------

The entropy contributions are T*S = T*(S(el)+S(vib)+S(rot)+S(trans))
     S(el)   - electronic entropy
     S(vib)  - vibrational entropy
     S(rot)  - rotational entropy
     S(trans)- translational entropy
The entropies will be listed as multiplied by the temperature to get
units of energy

Electronic entropy                ...      0.00000000 Eh      0.00 kcal/mol
Vibrational entropy               ...      0.01560400 Eh      9.79 kcal/mol
Rotational entropy                ...      0.01461782 Eh      9.17 kcal/mol
Translational entropy             ...      0.01961591 Eh     12.31 kcal/mol
-----------------------------------------------------------------------
Final entropy term                ...      0.04983773 Eh     31.27 kcal/mol

In case the symmetry of your molecule has not been determined correctly
or in case you have a reason to use a different symmetry number we print 
out the resulting rotational entropy values for sn=1,12:

 non-linear molecules -----------------------------------
|  sn= 1 | S(rot)=       0.01461782 Eh      9.17 kcal/mol|
|  sn= 2 | S(rot)=       0.01396337 Eh      8.76 kcal/mol|
|  sn= 3 | S(rot)=       0.01358054 Eh      8.52 kcal/mol|
|  sn= 4 | S(rot)=       0.01330891 Eh      8.35 kcal/mol|
|  sn= 5 | S(rot)=       0.01309822 Eh      8.22 kcal/mol|
|  sn= 6 | S(rot)=       0.01292608 Eh      8.11 kcal/mol|
|  sn= 7 | S(rot)=       0.01278053 Eh      8.02 kcal/mol|
|  sn= 8 | S(rot)=       0.01265446 Eh      7.94 kcal/mol|
|  sn= 9 | S(rot)=       0.01254325 Eh      7.87 kcal/mol|
|  sn=10 | S(rot)=       0.01244377 Eh      7.81 kcal/mol|
|  sn=11 | S(rot)=       0.01235378 Eh      7.75 kcal/mol|
|  sn=12 | S(rot)=       0.01227162 Eh      7.70 kcal/mol|
 linear molecules ---------------------------------------
|  Dinfh | S(rot)=       0.00913965 Eh      5.74 kcal/mol|
|  Cinfv | S(rot)=       0.00979411 Eh      6.15 kcal/mol|
 --------------------------------------------------------


-------------------
GIBBS FREE ENERGY
-------------------

The Gibbs free energy is G = H - T*S

Total enthalpy                    ...   -591.42943287 Eh 
Total entropy correction          ...     -0.04983773 Eh    -31.27 kcal/mol
-----------------------------------------------------------------------
Final Gibbs free energy         ...   -591.47927060 Eh

For completeness - the Gibbs free energy minus the electronic energy
G-E(el)                           ...      0.14827429 Eh     93.04 kcal/mol


Maximum memory used throughout the entire PROP-calculation: 69.5 MB

--------------------------------
SUGGESTED CITATIONS FOR THIS RUN
--------------------------------

Below you find a list of papers that are relevant to this ORCA run
We neither can nor want to force you to cite these papers, but we appreciate if you do
You receive ORCA, which is the product of decades of hard work by many enthusiastic individuals, for free
The only thing we kindly ask in return is that you cite our papers,
We deeply appreciate it, if you show your appreciation for ORCA by not just citing the generic ORCA reference.

Please note that relegating all ORCA citations to the supporting information does *not* help us.
SI sections are not indexed - citations you put there will not count into any citation statistics
But we need these citations in order to attract the funding resources that allow us to do what we are doing

Therefore, if you are a happy ORCA user, please consider citing a few of the papers listed below in the main body of your paper

In addition to the list printed below, the program has created the file m1_00_Vitamin_B6-GFN1_000-B97-3C-TZ.bibtex that contains the list in bibtex format
You can import this file easily into all common literature databanks and citation aid programs


List of essential papers. We consider these as the minimum necessary citations

  1. Neese,F.
     Software update: the ORCA program system, version 5.0
     WIRES Comput. Molec. Sci., 2022 12(1)e1606
     doi.org/10.1002/wcms.1606

List of papers to cite with high priority. The work reported in these papers was absolutely
necessary for this run to complete.
Our perspective: the developers of density functionals and basis sets usually get cited in chemistry papers
Good! But without the algorithms to do something with them, the functionals or basis sets would not do anything.
Hence, in our opinion, the algorithm design and method developments papers are equally worthy of getting cited

  1. Neese,F.
     An improvement of the resolution of the identity approximation for the formation of the Coulomb matrix
     J. Comp. Chem., 2003 24(14)1740-1747
     doi.org/10.1002/jcc.10318
  2. Bykov,D.; Petrenko,T.; Izsak,R.; Kossmann,S.; Becker,U.; Valeev,E.; Neese,F.
     Efficient implementation of the analytic second derivatives of Hartree-Fock and hybrid DFT energies: a detailed analysis of different approximations
     Molec. Phys., 2015 113 1961-1977
     doi.org/10.1080/00268976.2015.1025114
  3. Neese,F.
     The SHARK Integral Generation and Digestion System
     J. Comp. Chem., 2022  1-16
     doi.org/10.1002/jcc.26942
  4. Grimme,S.; Antony,J.; Ehrlich,S.; Krieg,H.
     A consistent and accurate ab initio parametrization of density functional dispersion correction (DFT-D) for the 94 elements H-Pu
     J. Chem. Phys., 2010 132 154104
     doi.org/10.1063/1.3382344
  5. Grimme,S.; Ehrlich,S.; Goerigk,L.
     Effect of the damping function in dispersion corrected density functional theory
     J. Comput. Chem., 2011 32(7)1456-1465
     doi.org/10.1002/jcc.21759

List of suggested additional citations. These are papers that are important in the 'surrounding' of 
of this run, or papers that preceded the highly important papers. If you like your results we are grateful for a citation.

  1. Neese,F.
     The ORCA program system
     WIRES Comput. Molec. Sci., 2012 2(1)73-78
     doi.org/10.1002/wcms.81
  2. Neese,F.
     Software update: the ORCA program system, version 4.0
     WIRES Comput. Molec. Sci., 2018 8(1)1-6
     doi.org/10.1002/wcms.1327
  3. Neese,F.; Wennmohs,F.; Becker,U.; Riplinger,C.
     The ORCA quantum chemistry program package
     J. Chem. Phys., 2020 152 Art. No. L224108
     doi.org/10.1063/5.0004608

List of optional additional citations

  1. Neese,F.
     Approximate second-order SCF convergence for spin unrestricted wavefunctions
     Chem. Phys. Lett., 2000 325(1-3)93-98
     doi.org/10.1016/s0009-2614(00)00662-x

Timings for individual modules:

Sum of individual times          ...      153.638 sec (=   2.561 min)
Startup calculation              ...       23.604 sec (=   0.393 min)  15.4 %
SCF iterations                   ...       36.146 sec (=   0.602 min)  23.5 %
Property integrals               ...       34.572 sec (=   0.576 min)  22.5 %
SCF Response                     ...       23.816 sec (=   0.397 min)  15.5 %
Property calculations            ...       15.419 sec (=   0.257 min)  10.0 %
SCF Gradient evaluation          ...       20.035 sec (=   0.334 min)  13.0 %
Geometry relaxation              ...        0.046 sec (=   0.001 min)   0.0 %
                             ****ORCA TERMINATED NORMALLY****
TOTAL RUN TIME: 0 days 0 hours 2 minutes 35 seconds 818 msec
