
                                 *****************
                                 * O   R   C   A *
                                 *****************

                                            #,                                       
                                            ###                                      
                                            ####                                     
                                            #####                                    
                                            ######                                   
                                           ########,                                 
                                     ,,################,,,,,                         
                               ,,#################################,,                 
                          ,,##########################################,,             
                       ,#########################################, ''#####,          
                    ,#############################################,,   '####,        
                  ,##################################################,,,,####,       
                ,###########''''           ''''###############################       
              ,#####''   ,,,,##########,,,,          '''####'''          '####       
            ,##' ,,,,###########################,,,                        '##       
           ' ,,###''''                  '''############,,,                           
         ,,##''                                '''############,,,,        ,,,,,,###''
      ,#''                                            '''#######################'''  
     '                                                          ''''####''''         
             ,#######,   #######,   ,#######,      ##                                
            ,#'     '#,  ##    ##  ,#'     '#,    #''#        ,####,   ,####,        
            ##       ##  ##   ,#'  ##            #'  '#       #'       #'  '#        
            ##       ##  #######   ##           ,######,      #####,   #    #        
            '#,     ,#'  ##    ##  '#,     ,#' ,#      #,     #,   #   #,  ,#        
             '#######'   ##     ##  '#######'  #'      '#     '####' # '####'        



                #########################################################
                #                        -***-                          #
                #          Department of theory and spectroscopy        #
                #                                                       #
                #                      Frank Neese                      #
                #                                                       #
                #     Directorship, Architecture, Infrastructure        #
                #                    SHARK, DRIVERS                     #
                #        Core code/Algorithms in most modules           #
                #                                                       #
                #        Max Planck Institute fuer Kohlenforschung      #
                #                Kaiser Wilhelm Platz 1                 #
                #                 D-45470 Muelheim/Ruhr                 #
                #                      Germany                          #
                #                                                       #
                #                  All rights reserved                  #
                #                        -***-                          #
                #########################################################


                         Program Version 6.0.1  -  RELEASE   -


 With contributions from (in alphabetic order):
[Max-Planck-Institut fuer Kohlenforschung]                               
  Daniel Aravena         : Magnetic Suceptibility                        
  Michael Atanasov       : Ab Initio Ligand Field Theory (pilot matlab implementation)
  Alexander A. Auer      : GIAO ZORA, VPT2 properties, NMR spectrum      
  Ute Becker             : All parallelization in ORCA, NUMFREQ, NUMCALC 
  Giovanni Bistoni       : ED, misc. LED, open-shell LED, HFLD           
  Martin Brehm           : Molecular dynamics                            
  Dmytro Bykov           : pre 5.0 version of the SCF Hessian            
  Marcos Casanova-Páez   : Triplet and SCS-CIS(D). UHF-(DLPNO)-IP/EA/STEOM-CCSD. UHF-CVS-IP/STEOM-CCSD   
  Vijay G. Chilkuri      : MRCI spin determinant printing, contributions to CSF-ICE 
  Pauline Colinet        : FMM embedding                                 
  Dipayan Datta          : RHF DLPNO-CCSD density                        
  Achintya Kumar Dutta   : EOM-CC, STEOM-CC                              
  Nicolas Foglia         : Exact transition moments, OPA infrastructure, MCD improvements    
  Dmitry Ganyushin       : Spin-Orbit,Spin-Spin,Magnetic field MRCI      
  Miquel Garcia-Rates    : C-PCM and meta-GGA Hessian, CCSD/C-PCM, Gaussian charge scheme 
  Tiago L. C. Gouveia    : GS-ROHF, GS-ROCIS                             
  Yang Guo               : DLPNO-NEVPT2, F12-NEVPT2, CIM, IAO-localization        
  Andreas Hansen         : Spin unrestricted coupled pair/coupled cluster methods 
  Ingolf Harden          : AUTO-CI MPn and infrastructure                
  Benjamin Helmich-Paris : MC-RPA, TRAH-(SCF,CASSCF), AVAS, COSX integrals, SCF dyn. polar. 
  Lee Huntington         : MR-EOM, pCC                                   
  Robert Izsak           : Overlap fitted RIJCOSX, COSX-SCS-MP3, EOM     
  Riya Kayal             : Wick's Theorem for AUTO-CI, AUTO-CI UHF-CCSDT 
  Emily Kempfer          : AUTO-CI, RHF CISDT and CCSDT                  
  Christian Kollmar      : KDIIS, OOCD, Brueckner-CCSD(T), CCSD density, CASPT2, CASPT2-K, improved NEVPT2 
  Axel Koslowski         : Symmetry handling                             
  Simone Kossmann        : meta-GGA functionals, TD-DFT gradient, OOMP2, (MP2 Hessian; deprecated post 5.0) 
  Lucas Lang             : DCDCAS                                        
  Marvin Lechner         : AUTO-CI (C++ implementation), FIC-MRCC        
  Spencer Leger          : CASSCF response                               
  Dagmar Lenk            : GEPOL surface, SMD, ORCA-2-JSON               
  Dimitrios Liakos       : Extrapolation schemes; Compound Job, initial MDCI parallelization 
  Dimitrios Manganas     : Further ROCIS development; embedding schemes. LFT, Crystal Embedding 
  Dimitrios Pantazis     : SARC Basis sets                               
  Anastasios Papadopoulos: AUTO-CI, single reference methods and gradients 
  Taras Petrenko         : pre 6.0 DFT Hessian and TD-DFT gradient, (ASA, deprecated), ECA, 1-Electron XAS/XES, NRVS 
  Peter Pinski           : DLPNO-MP2, DLPNO-MP2 Gradient                 
  Christoph Reimann      : Effective Core Potentials                     
  Marius Retegan         : Local ZFS, SOC                                
  Christoph Riplinger    : Optimizer, TS searches, QM/MM, DLPNO-CCSD(T), (RO)-DLPNO pert. Triples 
  Michael Roemelt        : Original ROCIS implementation                 
  Masaaki Saitow         : Open-shell DLPNO-CCSD energy and density      
  Barbara Sandhoefer     : DKH picture change effects                    
  Kantharuban Sivalingam : CASSCF convergence/infrastructure, NEVPT2 and variants, FIC-MRCI 
  Bernardo de Souza      : ESD, SOC TD-DFT                               
  Georgi L. Stoychev     : AutoAux, RI-MP2 NMR, DLPNO-MP2 response, X2C  
  Van Anh Tran           : RI-MP2 g-tensors                              
  Willem Van den Heuvel  : Paramagnetic NMR                              
  Zikuan Wang            : NOTCH, Electric field optimization            
  Frank Wennmohs         : Technical directorship and infrastructure     
  Hang Xu                : AUTO-CI-Response properties                   
                                                                         
[FACCTs GmbH]                                                            
  Markus Bursch, Miquel Garcia-Rates, Christoph Riplinger, Bernardo de Souza, Georgi L. Stoychev 
                                                                 
  APM, Basis sets (HGBS, AHGBS, def-TZVP (Ac-Lr), def2-XVPD (La-Lu)), CI-OPT, improved COSX, DLPNO-Multilevel,           
  DOCKER, DRACO, updates on ESD, GOAT, IRC, LR-CPCM, MBIS, meta-GGA TD-DFT gradient, ML-optimized integration grids, 
  MM, NACMEs, nearIR, NEB, NEB-TS, NL-DFT gradient (VV10), 2- and 3-layer-ONIOM, interface openCOSMO-RS, QMMM,   
  Crystal-QMMM, SF, symmetry and pop. for TD-DFT, r2SCAN hybrids, SOLVATOR                                   
                                                                         
[Other institutions]                                                     
  V. Asgeirsson          : NEB                                           
  Christoph Bannwarth    : sTDA-DFT, sTD-DFT, PBEh-3c, B97-3c, D3        
  Sebastian Ehlert       : rSCAN, r2SCAN, r2SCAN-3c, D4, dhf basis sets  
  Marvin Friede          : D4 for Fr, Ra, Ac-Lr                          
  Lars Goerigk           : TD-DFT with DH, B97 family of functionals     
  Stefan Grimme          : VdW corrections, initial TS optimization, DFT functionals, gCP, sTDA/sTD-DF 
  Waldemar Hujo          : DFT-NL                                        
  H. Jonsson             : NEB                                           
  Holger Kruse           : gCP                                           
  Marcel Mueller         : wB97X-3c, vDZP basis set                      
  Hagen Neugebauer       : wr2SCAN                                       
  Tobias Risthaus        : range-separated hybrid DFT                    
  Lukas Wittmann         : regularized MP2, r2SCAN double-hybrids, wr2SCAN        
                                                                         
We gratefully acknowledge several colleagues who have allowed us to      
interface, adapt or use parts of their codes:                            
  Ed Valeev, F. Pavosevic, A. Kumar             : LibInt (2-el integral package), F12 methods 
  Garnet Chan, S. Sharma, J. Yang, R. Olivares  : DMRG                   
  Ulf Ekstrom                                   : XCFun DFT Library      
  Mihaly Kallay                                 : mrcc  (arbitrary order and MRCC methods)
  Frank Weinhold                                : gennbo (NPA and NBO analysis)           
  Simon Mueller                                 : openCOSMO-RS                            
  Christopher J. Cramer and Donald G. Truhlar   : smd solvation model                     
  S Lehtola, MJT Oliveira, MAL Marques          : LibXC Library                           
  Liviu Ungur et al                             : ANISO software                          


 Your calculation uses the libint2 library for the computation of 2-el integrals
 For citations please refer to: http://libint.valeyev.net

 Your ORCA version has been built with support for libXC version: 6.2.2
 For citations please refer to: https://libxc.gitlab.io

 This ORCA versions uses:
   CBLAS   interface :  Fast vector & matrix operations
   LAPACKE interface :  Fast linear algebra routines
   SCALAPACK package :  Parallel linear algebra routines
   Shared memory     :  Shared parallel matrices
   BLAS/LAPACK       :  OpenBLAS 0.3.27  USE64BITINT DYNAMIC_ARCH NO_AFFINITY Zen SINGLE_THREADED
        Core in use  :  Zen
   Copyright (c) 2011-2014, The OpenBLAS Project


NOTE: MaxCore=6000 MB was set to SCF,MP2,MDCI,CIPSI,MRCI and CIS
      => If you want to overwrite this, your respective input block should be placed after the MaxCore statement
Your calculation utilizes the atom-pairwise dispersion correction
with the Becke-Johnson damping scheme (D3BJ)


Your calculation employs the composite approach B97-3c by Grimme and coworkers.
For the correct reference, please check the publication list of the Grimme group:
http://www.thch.uni-bonn.de/tc/index.php?section=publikationen&subsection=grimme#2017
   

XCFun DFT library Copyright 2009-2010 Ulf Ekstrom and contributors.
See http://admol.org/xcfun for more information.
This is free software; see the source code for copying conditions.
There is ABSOLUTELY NO WARRANTY; not even for MERCHANTABILITY or FITNESS FOR A PARTICULAR PURPOSE.
For details see the documentation.
Scientific users of this library should cite U. Ekstrom, L. Visscher, R. Bast, A. J. Thorvaldsen and K. Ruud;
J.Chem.Theor.Comp. 2010, DOI: 10.1021/ct100117s
XCFun Version 0.99 

================================================================================

----- Orbital basis set information -----
Your calculation utilizes the basis: def2-mTZVP
----- AuxJ basis set information -----
Your calculation utilizes the basis: def2-mTZVP/J
================================================================================
                                        WARNINGS
                       Please study these warnings very carefully!
================================================================================


WARNING: Geometry Optimization
  ===> : Switching off AutoStart
         For restart on a previous wavefunction, please use MOREAD

================================================================================
                                       INPUT FILE
================================================================================
NAME = m1_00_Vitamin_B6-GFN1_001-B97-3C-TZ.inp
|  1> %pal nprocs 16 end
|  2> %MaxCore 6000
|  3> # put your comments here
|  4> ! B97-3C  OPT  FREQ DEFGRID3 NOTRAH
|  5> %scf MaxIter 800 end
|  6> %output
|  7> Print [P_Hirshfeld] 1
|  8> end
|  9> %geom
| 10> MaxIter 3000
| 11>  TolE 1e-6 #TolE 5e-6 Energy change (a.u.)
| 12>  TolRMSG 3e-5 #TolRMSG 1e-4 RMS gradient (a.u.)
| 13>  TolMaxG 1e-4 #TolMaxG 3e-3 Max. element of gradient (a.u.)
| 14>  TolRMSD 2e-3 #TolRMSD 2e-3 RMS displacement (a.u.)
| 15>  TolMaxD 4e-3 #TolMaxD 4e-3 Max. displacement (a.u.)
| 16> end
| 17> * xyz 0 1
| 18>  O 1.54707133314854 1.85303120431452 0.42994955689400
| 19>  O -0.90984266985494 2.76970152365797 0.89059815817100
| 20>  O -2.93844749362093 -0.29629007051735 -1.25506391208694
| 21>  N 1.32182566001451 -1.70233615723444 0.11379503634550
| 22>  C -0.42772559636971 0.48242583361600 0.14227086691596
| 23>  C -0.89858755649599 -0.82579630727382 -0.03801119008516
| 24>  C 0.95090962225552 0.64633050672629 0.28199465445266
| 25>  C 1.79420231301181 -0.47605905632742 0.26662821484235
| 26>  C -1.38282626465705 1.66357090771421 0.13731953686820
| 27>  C -2.37359227627809 -1.11102801722025 -0.24617947137709
| 28>  C 0.01100326883116 -1.87386156477259 -0.04311573306063
| 29>  C 3.27620079010059 -0.30271734591960 0.41839510830244
| 30>  H -1.51370627279665 2.02120114006400 -0.89161420029046
| 31>  H -2.36922493395832 1.35567704693423 0.51071356266013
| 32>  H -2.51239467228233 -2.17736723274781 -0.48745017989467
| 33>  H -2.93425659738095 -0.89771987786260 0.67356258766315
| 34>  H -0.32835526537492 -2.89719834056583 -0.17624892182273
| 35>  H 3.50134333478527 0.20627884523039 1.35695398698142
| 36>  H 3.76759379754659 -1.27401421492095 0.40493859004587
| 37>  H 3.66730008823767 0.31239527261195 -0.39371620161615
| 38>  H 0.86479456609595 2.55329347265728 0.48383641212781
| 39>  H -0.90889550377597 2.54584158631351 1.83005877026667
| 40>  H -2.48327567118200 -0.45216415447773 -2.09240023230343
| 41> *
| 42> 
| 43> 
| 44> 
| 45> 
| 46>                          ****END OF INPUT****
================================================================================

                       *****************************
                       * Geometry Optimization Run *
                       *****************************

Geometry optimization settings:
Update method            Update   .... BFGS
Choice of coordinates    CoordSys .... (2022) Redundant Internals
Initial Hessian          InHess   .... Almloef's Model
Max. no of cycles        MaxIter  .... 3000

Convergence Tolerances:
Energy Change            TolE     ....  1.0000e-06 Eh
Max. Gradient            TolMAXG  ....  1.0000e-04 Eh/bohr
RMS Gradient             TolRMSG  ....  3.0000e-05 Eh/bohr
Max. Displacement        TolMAXD  ....  4.0000e-03 bohr
RMS Displacement         TolRMSD  ....  2.0000e-03 bohr
Strict Convergence                .... False

------------------------------------------------------------------------------
                        ORCA OPTIMIZATION COORDINATE SETUP
------------------------------------------------------------------------------

The optimization will be done in redundant internal coordinates (2022)
Making redundant internal coordinates   ...  (2022 redundants) done
Evaluating the initial hessian          ...  (Almloef) done
Evaluating the coordinates              ...  done
Calculating the B-matrix                .... done
Calculating the G-matrix                .... done
Diagonalizing the G-matrix              .... done
Small eigenvalue found = 2.792e-02
The first mode is                       ....   41
The number of degrees of freedom        ....   63

    -----------------------------------------------------------------
                    Redundant Internal Coordinates


    -----------------------------------------------------------------
         Definition                    Initial Value    Approx d2E/dq
    -----------------------------------------------------------------
      1. B(C   5,C   4)                  1.4020         0.597809   
      2. B(C   6,O   0)                  1.3540         0.638626   
      3. B(C   6,C   4)                  1.3954         0.612620   
      4. B(C   7,C   6)                  1.4040         0.593536   
      5. B(C   7,N   3)                  1.3230         0.715839   
      6. B(C   8,C   4)                  1.5190         0.388987   
      7. B(C   8,O   1)                  1.4194         0.502326   
      8. B(C   9,C   5)                  1.5167         0.392304   
      9. B(C   9,O   2)                  1.4145         0.511500   
     10. B(C  10,C   5)                  1.3877         0.630005   
     11. B(C  10,N   3)                  1.3313         0.694328   
     12. B(C  11,C   7)                  1.4998         0.417407   
     13. B(H  12,C   8)                  1.0971         0.350767   
     14. B(H  13,C   8)                  1.0987         0.348737   
     15. B(H  14,C   9)                  1.1021         0.344482   
     16. B(H  15,C   9)                  1.0981         0.349574   
     17. B(H  16,C  10)                  1.0863         0.364992   
     18. B(H  17,C  11)                  1.0912         0.358551   
     19. B(H  18,C  11)                  1.0886         0.361947   
     20. B(H  19,C  11)                  1.0913         0.358438   
     21. B(H  20,O   1)                  1.8335         0.021009   
     22. B(H  20,O   0)                  0.9792         0.484600   
     23. B(H  21,O   1)                  0.9658         0.509062   
     24. B(H  22,O   2)                  0.9657         0.509149   
     25. A(C   6,O   0,H  20)          109.6679         0.367531   
     26. A(C   8,O   1,H  21)          109.6297         0.355757   
     27. A(C   9,O   2,H  22)          109.7094         0.356862   
     28. A(C   7,N   3,C  10)          118.9871         0.448736   
     29. A(C   5,C   4,C   8)          120.9288         0.396961   
     30. A(C   6,C   4,C   8)          122.0206         0.398672   
     31. A(C   5,C   4,C   6)          117.0201         0.430305   
     32. A(C   4,C   5,C  10)          119.0157         0.432473   
     33. A(C   4,C   5,C   9)          121.3152         0.397554   
     34. A(C   9,C   5,C  10)          119.6631         0.401239   
     35. A(O   0,C   6,C   7)          116.6916         0.430142   
     36. A(C   4,C   6,C   7)          119.8974         0.429751   
     37. A(O   0,C   6,C   4)          123.4103         0.432594   
     38. A(N   3,C   7,C  11)          118.1407         0.412259   
     39. A(N   3,C   7,C   6)          121.8574         0.439070   
     40. A(C   6,C   7,C  11)          120.0010         0.401408   
     41. A(H  12,C   8,H  13)          107.6356         0.288192   
     42. A(C   4,C   8,H  13)          110.2111         0.324765   
     43. A(O   1,C   8,H  13)          109.7056         0.336757   
     44. A(C   4,C   8,H  12)          109.3615         0.325075   
     45. A(O   1,C   8,H  12)          106.4655         0.337082   
     46. A(O   1,C   8,C   4)          113.2482         0.382631   
     47. A(H  14,C   9,H  15)          107.8798         0.287487   
     48. A(C   5,C   9,H  15)          110.1856         0.325346   
     49. A(O   2,C   9,H  15)          106.3577         0.337909   
     50. A(C   5,C   9,H  14)          109.5421         0.324563   
     51. A(O   2,C   9,H  14)          110.5413         0.337083   
     52. A(O   2,C   9,C   5)          112.2061         0.384403   
     53. A(N   3,C  10,C   5)          123.2051         0.441385   
     54. A(C   5,C  10,H  16)          120.4732         0.354677   
     55. A(N   3,C  10,H  16)          116.3215         0.358353   
     56. A(H  17,C  11,H  18)          109.4932         0.290876   
     57. A(C   7,C  11,H  18)          109.9784         0.330582   
     58. A(C   7,C  11,H  17)          110.1716         0.330067   
     59. A(H  18,C  11,H  19)          109.3874         0.290862   
     60. A(H  17,C  11,H  19)          107.6517         0.290432   
     61. A(C   7,C  11,H  19)          110.1195         0.330050   
     62. D(C  10,C   5,C   4,C   6)      1.1741         0.024627   
     63. D(C   9,C   5,C   4,C   8)      0.0917         0.024627   
     64. D(C   9,C   5,C   4,C   6)   -177.9388         0.024627   
     65. D(C  10,C   5,C   4,C   8)    179.2046         0.024627   
     66. D(O   0,C   6,C   4,C   5)    178.3576         0.025933   
     67. D(C   4,C   6,O   0,H  20)      3.8785         0.030056   
     68. D(C   7,C   6,C   4,C   5)     -1.3335         0.025933   
     69. D(O   0,C   6,C   4,C   8)      0.3503         0.025933   
     70. D(C   7,C   6,O   0,H  20)   -176.4212         0.030056   
     71. D(C   7,C   6,C   4,C   8)   -179.3409         0.025933   
     72. D(N   3,C   7,C   6,C   4)      0.4280         0.024258   
     73. D(N   3,C   7,C   6,O   0)   -179.2835         0.024258   
     74. D(C  11,C   7,N   3,C  10)   -178.9727         0.038542   
     75. D(C  11,C   7,C   6,O   0)      0.3675         0.024258   
     76. D(C   6,C   7,N   3,C  10)      0.6845         0.038542   
     77. D(C  11,C   7,C   6,C   4)   -179.9211         0.024258   
     78. D(H  13,C   8,C   4,C   5)     30.0401         0.011260   
     79. D(H  12,C   8,C   4,C   5)    -88.0955         0.011260   
     80. D(O   1,C   8,C   4,C   6)    -28.7158         0.011260   
     81. D(O   1,C   8,C   4,C   5)    153.3537         0.011260   
     82. D(H  12,C   8,O   1,H  21)    171.2476         0.021650   
     83. D(H  12,C   8,C   4,C   6)     89.8351         0.011260   
     84. D(C   4,C   8,O   1,H  21)    -68.5387         0.021650   
     85. D(H  13,C   8,O   1,H  21)     55.0527         0.021650   
     86. D(H  14,C   9,C   5,C   4)    173.1981         0.011443   
     87. D(O   2,C   9,C   5,C  10)   -129.0743         0.011443   
     88. D(O   2,C   9,C   5,C   4)     50.0329         0.011443   
     89. D(H  15,C   9,O   2,H  22)   -179.5046         0.020716   
     90. D(H  14,C   9,O   2,H  22)    -62.6531         0.020716   
     91. D(H  14,C   9,C   5,C  10)     -5.9092         0.011443   
     92. D(C   5,C   9,O   2,H  22)     59.9482         0.020716   
     93. D(H  15,C   9,C   5,C   4)    -68.2731         0.011443   
     94. D(H  16,C  10,C   5,C   9)     -1.1600         0.027520   
     95. D(H  16,C  10,C   5,C   4)    179.7122         0.027520   
     96. D(N   3,C  10,C   5,C   9)    179.0277         0.027520   
     97. D(N   3,C  10,C   5,C   4)     -0.1001         0.027520   
     98. D(H  16,C  10,N   3,C   7)    179.3258         0.036046   
     99. D(C   5,C  10,N   3,C   7)     -0.8547         0.036046   
    100. D(H  19,C  11,C   7,N   3)    119.0650         0.012888   
    101. D(H  18,C  11,C   7,C   6)    178.7812         0.012888   
    102. D(H  18,C  11,C   7,N   3)     -1.5550         0.012888   
    103. D(H  17,C  11,C   7,C   6)     57.9963         0.012888   
    104. D(H  17,C  11,C   7,N   3)   -122.3399         0.012888   
    -----------------------------------------------------------------

Number of atoms                         .... 23
Number of degrees of freedom            .... 104


         *************************************************************
         *                GEOMETRY OPTIMIZATION CYCLE   1            *
         *************************************************************
---------------------------------
CARTESIAN COORDINATES (ANGSTROEM)
---------------------------------
  O      1.547071    1.853031    0.429950
  O     -0.909843    2.769702    0.890598
  O     -2.938447   -0.296290   -1.255064
  N      1.321826   -1.702336    0.113795
  C     -0.427726    0.482426    0.142271
  C     -0.898588   -0.825796   -0.038011
  C      0.950910    0.646331    0.281995
  C      1.794202   -0.476059    0.266628
  C     -1.382826    1.663571    0.137320
  C     -2.373592   -1.111028   -0.246179
  C      0.011003   -1.873862   -0.043116
  C      3.276201   -0.302717    0.418395
  H     -1.513706    2.021201   -0.891614
  H     -2.369225    1.355677    0.510714
  H     -2.512395   -2.177367   -0.487450
  H     -2.934257   -0.897720    0.673563
  H     -0.328355   -2.897198   -0.176249
  H      3.501343    0.206279    1.356954
  H      3.767594   -1.274014    0.404939
  H      3.667300    0.312395   -0.393716
  H      0.864795    2.553293    0.483836
  H     -0.908896    2.545842    1.830059
  H     -2.483276   -0.452164   -2.092400

----------------------------
CARTESIAN COORDINATES (A.U.)
----------------------------
  NO LB      ZA    FRAG     MASS         X           Y           Z
   0 O     8.0000    0    15.999    2.923541    3.501721    0.812487
   1 O     8.0000    0    15.999   -1.719353    5.233977    1.682987
   2 O     8.0000    0    15.999   -5.552861   -0.559907   -2.371727
   3 N     7.0000    0    14.007    2.497888   -3.216949    0.215041
   4 C     6.0000    0    12.011   -0.808284    0.911653    0.268853
   5 C     6.0000    0    12.011   -1.698084   -1.560529   -0.071831
   6 C     6.0000    0    12.011    1.796959    1.221388    0.532893
   7 C     6.0000    0    12.011    3.390551   -0.899621    0.503854
   8 C     6.0000    0    12.011   -2.613163    3.143693    0.259496
   9 C     6.0000    0    12.011   -4.485439   -2.099539   -0.465212
  10 C     6.0000    0    12.011    0.020793   -3.541085   -0.081477
  11 C     6.0000    0    12.011    6.191122   -0.572053    0.790652
  12 H     1.0000    0     1.008   -2.860490    3.819517   -1.684907
  13 H     1.0000    0     1.008   -4.477186    2.561858    0.965109
  14 H     1.0000    0     1.008   -4.747738   -4.114628   -0.921147
  15 H     1.0000    0     1.008   -5.544941   -1.696445    1.272849
  16 H     1.0000    0     1.008   -0.620502   -5.474911   -0.333062
  17 H     1.0000    0     1.008    6.616580    0.389811    2.564271
  18 H     1.0000    0     1.008    7.119720   -2.407538    0.765223
  19 H     1.0000    0     1.008    6.930193    0.590342   -0.744016
  20 H     1.0000    0     1.008    1.634225    4.825025    0.914318
  21 H     1.0000    0     1.008   -1.717564    4.810943    3.458310
  22 H     1.0000    0     1.008   -4.692711   -0.854466   -3.954063

--------------------------------
INTERNAL COORDINATES (ANGSTROEM)
--------------------------------
 O      0   0   0     0.000000000000     0.00000000     0.00000000
 O      1   0   0     2.662500333592     0.00000000     0.00000000
 O      2   1   0     4.256689759227    96.00275021     0.00000000
 N      1   2   3     3.576496381893   107.42354464   330.01784255
 C      1   2   3     2.420979352182    57.50382546   342.55607235
 C      5   1   2     1.402019178002   144.83440957   193.27658572
 C      1   2   3     1.354040624299    85.37945904   334.99593060
 C      4   1   2     1.322971356816    17.42025257   194.87170741
 C      2   1   3     1.419389693422    86.98345639     0.18649614
 C      3   2   1     1.414463556640    82.24342088    64.17308678
 C      4   1   2     1.331276566388   101.56692560    14.76004570
 C      8   4   1     1.499799994870   118.14070528   181.15239299
 H      9   2   1     1.097147936736   106.46549034   265.51034570
 H      9   2   1     1.098728384453   109.70559673   149.31542275
 H     10   3   2     1.102069409110   110.54133649   189.67429579
 H     10   3   2     1.098075725277   106.35769251    72.82272341
 H     11   4   1     1.086327214691   116.32150734   179.28755172
 H     12   8   4     1.091173247830   110.17159373   237.66008182
 H     12   8   4     1.088607263150   109.97838706   358.44497885
 H     12   8   4     1.091259352390   110.11952926   119.06500822
 H      1   2   3     0.979169354346    26.00817100   134.33569157
 H      2   1   3     0.965764158763    95.02506683   109.64174894
 H      3   2   1     0.965717469629   109.18957923   315.93406091

---------------------------
INTERNAL COORDINATES (A.U.)
---------------------------
 O      0   0   0     0.000000000000     0.00000000     0.00000000
 O      1   0   0     5.031396461963     0.00000000     0.00000000
 O      2   1   0     8.043977882005    96.00275021     0.00000000
 N      1   2   3     6.758598680739   107.42354464   330.01784255
 C      1   2   3     4.574987951501    57.50382546   342.55607235
 C      5   1   2     2.649432280929   144.83440957   193.27658572
 C      1   2   3     2.558765954128    85.37945904   334.99593060
 C      4   1   2     2.500053547404    17.42025257   194.87170741
 C      2   1   3     2.682257797878    86.98345639     0.18649614
 C      3   2   1     2.672948748462    82.24342088    64.17308678
 C      4   1   2     2.515748118981   101.56692560    14.76004570
 C      8   4   1     2.834211245960   118.14070528   181.15239299
 H      9   2   1     2.073309128828   106.46549034   265.51034570
 H      9   2   1     2.076295742182   109.70559673   149.31542275
 H     10   3   2     2.082609363791   110.54133649   189.67429579
 H     10   3   2     2.075062395080   106.35769251    72.82272341
 H     11   4   1     2.052860927592   116.32150734   179.28755172
 H     12   8   4     2.062018603060   110.17159373   237.66008182
 H     12   8   4     2.057169594750   109.97838706   358.44497885
 H     12   8   4     2.062181317097   110.11952926   119.06500822
 H      1   2   3     1.850361918443    26.00817100   134.33569157
 H      2   1   3     1.825029770018    95.02506683   109.64174894
 H      3   2   1     1.824941540342   109.18957923   315.93406091

---------------------
BASIS SET INFORMATION
---------------------
There are 4 groups of distinct atoms

 Group   1 Type O   : 11s6p2d contracted to 5s3p2d pattern {62111/411/11}
 Group   2 Type N   : 11s6p1d contracted to 5s3p1d pattern {62111/411/1}
 Group   3 Type C   : 11s6p1d contracted to 5s3p1d pattern {62111/411/1}
 Group   4 Type H   : 5s contracted to 3s pattern {311}

Atom   0O    basis set group =>   1
Atom   1O    basis set group =>   1
Atom   2O    basis set group =>   1
Atom   3N    basis set group =>   2
Atom   4C    basis set group =>   3
Atom   5C    basis set group =>   3
Atom   6C    basis set group =>   3
Atom   7C    basis set group =>   3
Atom   8C    basis set group =>   3
Atom   9C    basis set group =>   3
Atom  10C    basis set group =>   3
Atom  11C    basis set group =>   3
Atom  12H    basis set group =>   4
Atom  13H    basis set group =>   4
Atom  14H    basis set group =>   4
Atom  15H    basis set group =>   4
Atom  16H    basis set group =>   4
Atom  17H    basis set group =>   4
Atom  18H    basis set group =>   4
Atom  19H    basis set group =>   4
Atom  20H    basis set group =>   4
Atom  21H    basis set group =>   4
Atom  22H    basis set group =>   4
---------------------------------
AUXILIARY/J BASIS SET INFORMATION
---------------------------------
There are 4 groups of distinct atoms

 Group   1 Type O   : 8s3p3d contracted to 6s3p3d pattern {311111/111/111}
 Group   2 Type N   : 8s3p3d contracted to 6s3p3d pattern {311111/111/111}
 Group   3 Type C   : 8s3p3d contracted to 6s3p3d pattern {311111/111/111}
 Group   4 Type H   : 5s2p contracted to 3s1p pattern {311/2}

Atom   0O    basis set group =>   1
Atom   1O    basis set group =>   1
Atom   2O    basis set group =>   1
Atom   3N    basis set group =>   2
Atom   4C    basis set group =>   3
Atom   5C    basis set group =>   3
Atom   6C    basis set group =>   3
Atom   7C    basis set group =>   3
Atom   8C    basis set group =>   3
Atom   9C    basis set group =>   3
Atom  10C    basis set group =>   3
Atom  11C    basis set group =>   3
Atom  12H    basis set group =>   4
Atom  13H    basis set group =>   4
Atom  14H    basis set group =>   4
Atom  15H    basis set group =>   4
Atom  16H    basis set group =>   4
Atom  17H    basis set group =>   4
Atom  18H    basis set group =>   4
Atom  19H    basis set group =>   4
Atom  20H    basis set group =>   4
Atom  21H    basis set group =>   4
Atom  22H    basis set group =>   4


           ************************************************************
           *        Program running with 16 parallel MPI-processes    *
           *              working on a common directory               *
           ************************************************************
------------------------------------------------------------------------------
                             ORCA STARTUP CALCULATIONS
                           -- RI-GTO INTEGRALS CHOSEN --
------------------------------------------------------------------------------
------------------------------------------------------------------------------
                   ___                                                        
                  /   \      - P O W E R E D   B Y -                         
                 /     \                                                     
                 |  |  |   _    _      __       _____    __    __             
                 |  |  |  | |  | |    /  \     |  _  \  |  |  /  |          
                  \  \/   | |  | |   /    \    | | | |  |  | /  /          
                 / \  \   | |__| |  /  /\  \   | |_| |  |  |/  /          
                |  |  |   |  __  | /  /__\  \  |    /   |      \           
                |  |  |   | |  | | |   __   |  |    \   |  |\   \          
                \     /   | |  | | |  |  |  |  | |\  \  |  | \   \       
                 \___/    |_|  |_| |__|  |__|  |_| \__\ |__|  \__/        
                                                                              
                      - O R C A' S   B I G   F R I E N D -                    
                                      &                                       
                       - I N T E G R A L  F E E D E R -                       
                                                                              
 v1 FN, 2020, v2 2021, v3 2022-2024                                           
------------------------------------------------------------------------------


----------------------
SHARK INTEGRAL PACKAGE
----------------------

Number of atoms                             ...     23
Number of basis functions                   ...    276
Number of shells                            ...    144
Maximum angular momentum                    ...      2
Integral batch strategy                     ... SHARK/LIBINT Hybrid
RI-J (if used) integral strategy            ... SPLIT-RIJ (Revised 2003 algorithm where possible)
Printlevel                                  ...      1
Contraction scheme used                     ... SEGMENTED contraction
Prescreening option                         ... SCHWARTZ
   Thresh                                   ... 2.500e-11
   Tcut                                     ... 2.500e-12
   Tpresel                                  ... 2.500e-12 
Coulomb Range Separation                    ... NOT USED
Exchange Range Separation                   ... NOT USED
Multipole approximations                    ... NOT USED
Finite Nucleus Model                        ... NOT USED
CABS basis                                  ... NOT available
Auxiliary Coulomb fitting basis             ... AVAILABLE
   # of basis functions in Aux-J            ...    426
   # of shells in Aux-J                     ...    188
   Maximum angular momentum in Aux-J        ...      2
Auxiliary J/K fitting basis                 ... NOT available
Auxiliary Correlation fitting basis         ... NOT available
Auxiliary 'external' fitting basis          ... NOT available

Checking pre-screening integrals            ... done (  0.0 sec) Dimension = 144
Check shell pair data                       ... done (  0.0 sec)
Shell pair information
Shell pair cut-off parameter TPreSel        ...   2.5e-12
Total number of shell pairs                 ...     10440
Shell pairs after pre-screening             ...      9053
Total number of primitive shell pairs       ...     37972
Primitive shell pairs kept                  ...     22458
          la=0 lb=0:   3561 shell pairs
          la=1 lb=0:   3039 shell pairs
          la=1 lb=1:    642 shell pairs
          la=2 lb=0:   1191 shell pairs
          la=2 lb=1:    510 shell pairs
          la=2 lb=2:    110 shell pairs

Calculating one electron integrals          ... done (  0.0 sec)
Calculating RI/J V-Matrix + Cholesky decomp.... done (  0.0 sec)
Calculating Nuclear repulsion               ... done (  0.0 sec) ENN=    726.099036077878 Eh

Diagonalization of the overlap matrix:
Smallest eigenvalue                        ... 2.804e-05
Time for diagonalization                   ...    0.005 sec
Threshold for overlap eigenvalues          ... 1.000e-07
Number of eigenvalues below threshold      ... 0
Time for construction of square roots      ...    0.003 sec
Total time needed                          ...    0.009 sec

-------------------
DFT GRID GENERATION
-------------------

General Integration Accuracy     IntAcc      ... 4.959
Radial Grid Type                 RadialGrid  ... OptM3 with GC (2021)
Angular Grid (max. ang.)         AngularGrid ... 6 (Lebedev-590)
Angular grid pruning method      GridPruning ... 4 (adaptive)
Weight generation scheme         WeightScheme... mBecke (2022)
Basis function cutoff            BFCut       ... 1.0000e-11
Integration weight cutoff        WCut        ... 1.0000e-14
Partially contracted basis set               ... off
Rotationally invariant grid construction     ... off
Angular grids for H and He will be reduced by one unit
Diffuse basis detected: some atoms will have their outermost
                        angular grid increased by 1.

Total number of grid points                  ...   267637
Total number of batches                      ...     4194
Average number of points per batch           ...       63
Average number of grid points per atom       ...    11636
Initializing property integral containers    ... done (  0.0 sec)

SHARK setup successfully completed in   2.0 seconds

Maximum memory used throughout the entire STARTUP-calculation: 57.7 MB


           ************************************************************
           *        Program running with 16 parallel MPI-processes    *
           *              working on a common directory               *
           ************************************************************
-------------------------------------------------------------------------------
                                 ORCA GUESS
                   Start orbitals & Density for SCF / CASSCF
-------------------------------------------------------------------------------

------------
SCF SETTINGS
------------
Hamiltonian:
 Density Functional     Method          .... DFT(GTOs)
 Exchange Functional    Exchange        .... B973C
 Correlation Functional Correlation     .... B973C
 Gradients option       PostSCFGGA      .... off
 RI-approximation to the Coulomb term is turned on
   Number of AuxJ basis functions       .... 426


General Settings:
 Integral files         IntName         .... m1_00_Vitamin_B6-GFN1_001-B97-3C-TZ
 Hartree-Fock type      HFTyp           .... RHF
 Total Charge           Charge          ....    0
 Multiplicity           Mult            ....    1
 Number of Electrons    NEL             ....   90
 Basis Dimension        Dim             ....  276
 Nuclear Repulsion      ENuc            ....    726.0990360779 Eh

Convergence Acceleration:
 AO-DIIS                CNVDIIS         .... on
   Start iteration      DIISMaxIt       ....    12
   Startup error        DIISStart       ....  0.200000
   # of expansion vecs  DIISMaxEq       ....     5
   Bias factor          DIISBfac        ....   1.050
   Max. coefficient     DIISMaxC        ....  10.000
 MO-DIIS                CNVKDIIS        .... off
 Trust-Rad. Augm. Hess. CNVTRAH         .... off
 SOSCF                  CNVSOSCF        .... on
   Start iteration      SOSCFMaxIt      ....   150
   Startup grad/error   SOSCFStart      ....  0.003300
   Hessian update       SOSCFHessUp     .... L-BFGS
 Level Shifting         CNVShift        .... on
   Level shift para.    LevelShift      ....    0.2500
   Turn off err/grad.   ShiftErr        ....    0.0010
 Zerner damping         CNVZerner       .... off
 Static damping         CNVDamp         .... on
   Fraction old density DampFac         ....    0.7000
   Max. Damping (<1)    DampMax         ....    0.9800
   Min. Damping (>=0)   DampMin         ....    0.0000
   Turn off err/grad.   DampErr         ....    0.1000

SCF Procedure:
 Maximum # iterations   MaxIter         ....   800
 SCF integral mode      SCFMode         .... Direct
   Integral package                     .... SHARK and LIBINT hybrid scheme
 Reset frequency        DirectResetFreq ....    20
 Integral Threshold     Thresh          ....  2.500e-11 Eh
 Primitive CutOff       TCut            ....  2.500e-12 Eh

Convergence Tolerance:
 Convergence Check Mode ConvCheckMode   .... Total+1el-Energy
 Convergence forced     ConvForced      .... 0
 Energy Change          TolE            ....  1.000e-08 Eh
 1-El. energy change                    ....  1.000e-05 Eh
 Orbital Gradient       TolG            ....  1.000e-05
 Orbital Rotation angle TolX            ....  1.000e-05
 DIIS Error             TolErr          ....  5.000e-07

--------------------------------
INITIAL GUESS: MINIMAL BASIS EHT
--------------------------------
The minimal basis has 71 functions
EHT matrix was diagonalized
Basis set overlap was calculated now projecting the orbitals
Using GuessMode=FMatrix for the initial guess
C*T matrix was formed
Effective Fockian was calculated
Effective Fockian was diagonalized
Initial density was built
                      ------------------
                      INITIAL GUESS DONE
                      ------------------
             **** ENERGY FILE WAS UPDATED (m1_00_Vitamin_B6-GFN1_001-B97-3C-TZ.en.tmp) ****
Finished Guess after   0.1 sec
Maximum memory used throughout the entire GUESS-calculation: 16.1 MB


           ************************************************************
           *        Program running with 16 parallel MPI-processes    *
           *              working on a common directory               *
           ************************************************************

-------------------------------------------------------------------------------------------
                                      ORCA LEAN-SCF
                              memory conserving SCF solver
-------------------------------------------------------------------------------------------

----------------------------------------D-I-I-S--------------------------------------------
Iteration    Energy (Eh)           Delta-E    RMSDP     MaxDP     DIISErr   Damp  Time(sec)
-------------------------------------------------------------------------------------------
               ***  Starting incremental Fock matrix formation  ***
    1    -589.6355297951865850     0.00e+00  8.37e-03  2.41e-01  4.53e-01  0.700   0.3
Warning: op=0 Small HOMO/LUMO gap (   0.084) - skipping pre-diagonalization
         Will do a full diagonalization
    2    -590.3039739703481246    -6.68e-01  7.68e-03  4.09e-01  3.20e-01  0.700   0.3
    3    -590.6641240775250026    -3.60e-01  3.79e-03  1.09e-01  2.27e-01  0.700   0.3
                               ***Turning on AO-DIIS***
    4    -590.9119713766508539    -2.48e-01  2.78e-03  1.32e-01  1.59e-01  0.700   0.3
    5    -591.0865323817749868    -1.75e-01  1.98e-03  9.95e-02  1.10e-01  0.700   0.3
    6    -591.2098427769069531    -1.23e-01  1.28e-03  5.33e-02  7.63e-02  0.700   0.3
    7    -591.2975735979066485    -8.77e-02  2.86e-03  7.56e-02  5.35e-02  0.000   0.3
    8    -591.5001369328510918    -2.03e-01  5.35e-04  2.80e-02  1.94e-02  0.000   0.3
                              *** Initializing SOSCF ***
---------------------------------------S-O-S-C-F--------------------------------------
Iteration    Energy (Eh)           Delta-E    RMSDP     MaxDP     MaxGrad    Time(sec)
--------------------------------------------------------------------------------------
    9    -591.5020019452736051    -1.87e-03  8.23e-05  4.14e-03  2.84e-03     0.3
               *** Restarting incremental Fock matrix formation ***
   10    -591.5020303097073793    -2.84e-05  9.24e-05  5.34e-03  2.99e-04     0.3
   11    -591.5020085525165996     2.18e-05  6.64e-05  3.03e-03  7.67e-04     0.3
   12    -591.5020376167046834    -2.91e-05  3.15e-05  1.53e-03  1.68e-04     0.3
   13    -591.5020348189036667     2.80e-06  2.47e-05  1.64e-03  4.40e-04     0.3
   14    -591.5020382961563428    -3.48e-06  1.02e-05  8.80e-04  2.94e-05     0.3
   15    -591.5020382068209983     8.93e-08  4.64e-06  2.33e-04  3.82e-05     0.3
   16    -591.5020383450971622    -1.38e-07  6.60e-06  3.55e-04  5.82e-06     0.3
   17    -591.5020383373378081     7.76e-09  2.83e-06  1.74e-04  1.19e-05     0.3
                 **** Energy Check signals convergence ****

               *****************************************************
               *                     SUCCESS                       *
               *           SCF CONVERGED AFTER  17 CYCLES          *
               *****************************************************

             **** ENERGY FILE WAS UPDATED (m1_00_Vitamin_B6-GFN1_001-B97-3C-TZ.en.tmp) ****

----------------
TOTAL SCF ENERGY
----------------

Total Energy       :       -591.50203833733781 Eh          -16095.58875 eV

Components:
Nuclear Repulsion  :        726.09903607787828 Eh           19758.15926 eV
Electronic Energy  :      -1317.60107441521609 Eh          -35853.74800 eV
One Electron Energy:      -2247.04435628293550 Eh          -61145.18550 eV
Two Electron Energy:        929.44328186771941 Eh           25291.43749 eV

Virial components:
Potential Energy   :      -1180.81452261992604 Eh          -32131.59670 eV
Kinetic Energy     :        589.31248428258823 Eh           16036.00795 eV
Virial Ratio       :          2.00371543809634

DFT components:
N(Alpha)           :       44.999996999262 electrons
N(Beta)            :       44.999996999262 electrons
N(Total)           :       89.999993998524 electrons
E(XC)              :      -79.798981178818 Eh       

---------------
SCF CONVERGENCE
---------------

  Last Energy change         ...   -7.7594e-09  Tolerance :   1.0000e-08
  Last MAX-Density change    ...    1.7425e-04  Tolerance :   1.0000e-07
  Last RMS-Density change    ...    2.8275e-06  Tolerance :   5.0000e-09
  Last DIIS Error            ...    2.8358e-03  Tolerance :   5.0000e-07
  Last Orbital Gradient      ...    1.1862e-05  Tolerance :   1.0000e-05
  Last Orbital Rotation      ...    2.2575e-05  Tolerance :   1.0000e-05


----------------
ORBITAL ENERGIES
----------------

  NO   OCC          E(Eh)            E(eV) 
   0   2.0000     -18.780502      -511.0434 
   1   2.0000     -18.770317      -510.7663 
   2   2.0000     -18.756840      -510.3996 
   3   2.0000     -13.975096      -380.2817 
   4   2.0000      -9.962570      -271.0953 
   5   2.0000      -9.956382      -270.9269 
   6   2.0000      -9.954008      -270.8623 
   7   2.0000      -9.923850      -270.0417 
   8   2.0000      -9.914988      -269.8006 
   9   2.0000      -9.914435      -269.7855 
  10   2.0000      -9.906735      -269.5760 
  11   2.0000      -9.877114      -268.7699 
  12   2.0000      -0.989587       -26.9280 
  13   2.0000      -0.968959       -26.3667 
  14   2.0000      -0.956778       -26.0353 
  15   2.0000      -0.866686       -23.5837 
  16   2.0000      -0.753654       -20.5080 
  17   2.0000      -0.711982       -19.3740 
  18   2.0000      -0.667946       -18.1757 
  19   2.0000      -0.643510       -17.5108 
  20   2.0000      -0.606811       -16.5122 
  21   2.0000      -0.577861       -15.7244 
  22   2.0000      -0.539256       -14.6739 
  23   2.0000      -0.514436       -13.9985 
  24   2.0000      -0.483956       -13.1691 
  25   2.0000      -0.465473       -12.6662 
  26   2.0000      -0.441769       -12.0212 
  27   2.0000      -0.433297       -11.7906 
  28   2.0000      -0.421888       -11.4801 
  29   2.0000      -0.408058       -11.1038 
  30   2.0000      -0.395618       -10.7653 
  31   2.0000      -0.389780       -10.6065 
  32   2.0000      -0.382007       -10.3949 
  33   2.0000      -0.351591        -9.5673 
  34   2.0000      -0.343305        -9.3418 
  35   2.0000      -0.335639        -9.1332 
  36   2.0000      -0.329049        -8.9539 
  37   2.0000      -0.318152        -8.6574 
  38   2.0000      -0.308626        -8.3981 
  39   2.0000      -0.304125        -8.2757 
  40   2.0000      -0.264525        -7.1981 
  41   2.0000      -0.254134        -6.9153 
  42   2.0000      -0.233949        -6.3661 
  43   2.0000      -0.206523        -5.6198 
  44   2.0000      -0.200204        -5.4478 
  45   0.0000      -0.055349        -1.5061 
  46   0.0000      -0.030625        -0.8334 
  47   0.0000      -0.005413        -0.1473 
  48   0.0000       0.012665         0.3446 
  49   0.0000       0.046416         1.2630 
  50   0.0000       0.054358         1.4792 
  51   0.0000       0.059260         1.6125 
  52   0.0000       0.071276         1.9395 
  53   0.0000       0.083269         2.2659 
  54   0.0000       0.092109         2.5064 
  55   0.0000       0.092699         2.5225 
*Only the first 10 virtual orbitals were printed.

                    ********************************
                    * MULLIKEN POPULATION ANALYSIS *
                    ********************************

-----------------------
MULLIKEN ATOMIC CHARGES
-----------------------
   0 O :   -0.541906
   1 O :   -0.622525
   2 O :   -0.556116
   3 N :   -0.039492
   4 C :   -0.039645
   5 C :    0.077659
   6 C :    0.431529
   7 C :   -0.060368
   8 C :   -0.185408
   9 C :   -0.407956
  10 C :   -0.225444
  11 C :   -0.552118
  12 H :    0.173994
  13 H :    0.203655
  14 H :    0.177255
  15 H :    0.184624
  16 H :    0.146761
  17 H :    0.168647
  18 H :    0.193245
  19 H :    0.169802
  20 H :    0.430922
  21 H :    0.443054
  22 H :    0.429829
Sum of atomic charges:    0.0000000

--------------------------------
MULLIKEN REDUCED ORBITAL CHARGES
--------------------------------
  0 O s       :     3.785192  s :     3.785192
      pz      :     1.815193  p :     4.719235
      px      :     1.642659
      py      :     1.261383
      dz2     :     0.004094  d :     0.037479
      dxz     :     0.004409
      dyz     :     0.006645
      dx2y2   :     0.005749
      dxy     :     0.016581

  1 O s       :     3.817904  s :     3.817904
      pz      :     1.324803  p :     4.757394
      px      :     1.845441
      py      :     1.587151
      dz2     :     0.017177  d :     0.047226
      dxz     :     0.005864
      dyz     :     0.009474
      dx2y2   :     0.009670
      dxy     :     0.005040

  2 O s       :     3.809881  s :     3.809881
      pz      :     1.262889  p :     4.712385
      px      :     1.740177
      py      :     1.709320
      dz2     :     0.004496  d :     0.033850
      dxz     :     0.014942
      dyz     :     0.006737
      dx2y2   :     0.001888
      dxy     :     0.005786

  3 N s       :     3.441407  s :     3.441407
      pz      :     1.123767  p :     3.551089
      px      :     1.151967
      py      :     1.275355
      dz2     :     0.005038  d :     0.046996
      dxz     :     0.007275
      dyz     :     0.007320
      dx2y2   :     0.018305
      dxy     :     0.009058

  4 C s       :     3.265071  s :     3.265071
      pz      :     1.000651  p :     2.729373
      px      :     0.884656
      py      :     0.844066
      dz2     :     0.003668  d :     0.045200
      dxz     :     0.006047
      dyz     :     0.005943
      dx2y2   :     0.015445
      dxy     :     0.014096

  5 C s       :     3.142566  s :     3.142566
      pz      :     0.986515  p :     2.733111
      px      :     0.811769
      py      :     0.934828
      dz2     :     0.003521  d :     0.046664
      dxz     :     0.005331
      dyz     :     0.007214
      dx2y2   :     0.015447
      dxy     :     0.015151

  6 C s       :     3.023720  s :     3.023720
      pz      :     0.955584  p :     2.472197
      px      :     0.805013
      py      :     0.711601
      dz2     :     0.004840  d :     0.072553
      dxz     :     0.008429
      dyz     :     0.014486
      dx2y2   :     0.021291
      dxy     :     0.023507

  7 C s       :     3.183204  s :     3.183204
      pz      :     0.965520  p :     2.813420
      px      :     0.919300
      py      :     0.928601
      dz2     :     0.003976  d :     0.063744
      dxz     :     0.006788
      dyz     :     0.008950
      dx2y2   :     0.020917
      dxy     :     0.023113

  8 C s       :     3.181170  s :     3.181170
      pz      :     1.032337  p :     2.939651
      px      :     1.037427
      py      :     0.869887
      dz2     :     0.013825  d :     0.064587
      dxz     :     0.007141
      dyz     :     0.013700
      dx2y2   :     0.013455
      dxy     :     0.016466

  9 C s       :     3.361694  s :     3.361694
      pz      :     0.942911  p :     2.980200
      px      :     0.991747
      py      :     1.045542
      dz2     :     0.013275  d :     0.066063
      dxz     :     0.016242
      dyz     :     0.009894
      dx2y2   :     0.019427
      dxy     :     0.007225

 10 C s       :     3.207345  s :     3.207345
      pz      :     0.999605  p :     2.960317
      px      :     0.975111
      py      :     0.985602
      dz2     :     0.004233  d :     0.057781
      dxz     :     0.009263
      dyz     :     0.003125
      dx2y2   :     0.019164
      dxy     :     0.021997

 11 C s       :     3.265996  s :     3.265996
      pz      :     1.109324  p :     3.249362
      px      :     0.970905
      py      :     1.169133
      dz2     :     0.007488  d :     0.036759
      dxz     :     0.005459
      dyz     :     0.007998
      dx2y2   :     0.008525
      dxy     :     0.007289

 12 H s       :     0.826006  s :     0.826006

 13 H s       :     0.796345  s :     0.796345

 14 H s       :     0.822745  s :     0.822745

 15 H s       :     0.815376  s :     0.815376

 16 H s       :     0.853239  s :     0.853239

 17 H s       :     0.831353  s :     0.831353

 18 H s       :     0.806755  s :     0.806755

 19 H s       :     0.830198  s :     0.830198

 20 H s       :     0.569078  s :     0.569078

 21 H s       :     0.556946  s :     0.556946

 22 H s       :     0.570171  s :     0.570171



                     *******************************
                     * LOEWDIN POPULATION ANALYSIS *
                     *******************************

----------------------
LOEWDIN ATOMIC CHARGES
----------------------
   0 O :   -0.638207
   1 O :   -0.727902
   2 O :   -0.753922
   3 N :   -0.165473
   4 C :   -0.012631
   5 C :   -0.064902
   6 C :    0.199248
   7 C :    0.029610
   8 C :    0.049398
   9 C :    0.025383
  10 C :   -0.096474
  11 C :   -0.393860
  12 H :    0.203347
  13 H :    0.199253
  14 H :    0.173283
  15 H :    0.184283
  16 H :    0.157208
  17 H :    0.172670
  18 H :    0.167183
  19 H :    0.173190
  20 H :    0.388300
  21 H :    0.369039
  22 H :    0.361975

-------------------------------
LOEWDIN REDUCED ORBITAL CHARGES
-------------------------------
  0 O s       :     3.511819  s :     3.511819
      pz      :     1.797970  p :     4.781950
      px      :     1.633867
      py      :     1.350114
      dz2     :     0.042447  d :     0.344438
      dxz     :     0.032117
      dyz     :     0.065202
      dx2y2   :     0.085766
      dxy     :     0.118905

  1 O s       :     3.547324  s :     3.547324
      pz      :     1.379103  p :     4.829138
      px      :     1.814739
      py      :     1.635296
      dz2     :     0.103341  d :     0.351440
      dxz     :     0.039122
      dyz     :     0.062888
      dx2y2   :     0.071653
      dxy     :     0.074436

  2 O s       :     3.558428  s :     3.558428
      pz      :     1.355977  p :     4.852981
      px      :     1.743803
      py      :     1.753201
      dz2     :     0.096363  d :     0.342513
      dxz     :     0.070251
      dyz     :     0.073471
      dx2y2   :     0.061936
      dxy     :     0.040492

  3 N s       :     3.214098  s :     3.214098
      pz      :     1.128618  p :     3.863534
      px      :     1.325148
      py      :     1.409768
      dz2     :     0.009598  d :     0.087841
      dxz     :     0.013012
      dyz     :     0.011355
      dx2y2   :     0.034575
      dxy     :     0.019301

  4 C s       :     2.840880  s :     2.840880
      pz      :     0.993470  p :     3.079764
      px      :     1.041606
      py      :     1.044688
      dz2     :     0.007056  d :     0.091986
      dxz     :     0.010795
      dyz     :     0.010442
      dx2y2   :     0.032588
      dxy     :     0.031105

  5 C s       :     2.858229  s :     2.858229
      pz      :     0.980745  p :     3.110075
      px      :     1.045336
      py      :     1.083993
      dz2     :     0.007083  d :     0.096598
      dxz     :     0.009136
      dyz     :     0.013746
      dx2y2   :     0.033584
      dxy     :     0.033050

  6 C s       :     2.776509  s :     2.776509
      pz      :     0.920207  p :     2.864343
      px      :     1.030661
      py      :     0.913475
      dz2     :     0.011970  d :     0.159901
      dxz     :     0.015460
      dyz     :     0.027818
      dx2y2   :     0.048768
      dxy     :     0.055886

  7 C s       :     2.829104  s :     2.829104
      pz      :     0.938310  p :     3.007278
      px      :     1.051650
      py      :     1.017318
      dz2     :     0.008899  d :     0.134007
      dxz     :     0.011475
      dyz     :     0.015901
      dx2y2   :     0.049857
      dxy     :     0.047876

  8 C s       :     2.856132  s :     2.856132
      pz      :     1.017525  p :     2.967243
      px      :     1.025897
      py      :     0.923821
      dz2     :     0.025872  d :     0.127228
      dxz     :     0.012553
      dyz     :     0.028273
      dx2y2   :     0.026109
      dxy     :     0.034420

  9 C s       :     2.861096  s :     2.861096
      pz      :     0.959844  p :     2.983650
      px      :     1.008504
      py      :     1.015302
      dz2     :     0.025417  d :     0.129871
      dxz     :     0.031326
      dyz     :     0.021471
      dx2y2   :     0.037906
      dxy     :     0.013751

 10 C s       :     2.880983  s :     2.880983
      pz      :     0.992115  p :     3.097339
      px      :     1.028544
      py      :     1.076680
      dz2     :     0.008251  d :     0.118152
      dxz     :     0.017018
      dyz     :     0.005008
      dx2y2   :     0.041338
      dxy     :     0.046537

 11 C s       :     2.976563  s :     2.976563
      pz      :     1.143851  p :     3.357329
      px      :     1.062426
      py      :     1.151052
      dz2     :     0.011681  d :     0.059968
      dxz     :     0.009575
      dyz     :     0.011511
      dx2y2   :     0.015069
      dxy     :     0.012131

 12 H s       :     0.796653  s :     0.796653

 13 H s       :     0.800747  s :     0.800747

 14 H s       :     0.826717  s :     0.826717

 15 H s       :     0.815717  s :     0.815717

 16 H s       :     0.842792  s :     0.842792

 17 H s       :     0.827330  s :     0.827330

 18 H s       :     0.832817  s :     0.832817

 19 H s       :     0.826810  s :     0.826810

 20 H s       :     0.611700  s :     0.611700

 21 H s       :     0.630961  s :     0.630961

 22 H s       :     0.638025  s :     0.638025



                      *****************************
                      * MAYER POPULATION ANALYSIS *
                      *****************************

  NA   - Mulliken gross atomic population
  ZA   - Total nuclear charge
  QA   - Mulliken gross atomic charge
  VA   - Mayer's total valence
  BVA  - Mayer's bonded valence
  FA   - Mayer's free valence

  ATOM       NA         ZA         QA         VA         BVA        FA
  0 O      8.5419     8.0000    -0.5419     1.9121     1.9121     0.0000
  1 O      8.6225     8.0000    -0.6225     1.7913     1.7913    -0.0000
  2 O      8.5561     8.0000    -0.5561     1.7411     1.7411     0.0000
  3 N      7.0395     7.0000    -0.0395     3.2272     3.2272    -0.0000
  4 C      6.0396     6.0000    -0.0396     3.3843     3.3843     0.0000
  5 C      5.9223     6.0000     0.0777     3.3371     3.3371    -0.0000
  6 C      5.5685     6.0000     0.4315     3.6092     3.6092     0.0000
  7 C      6.0604     6.0000    -0.0604     3.8605     3.8605     0.0000
  8 C      6.1854     6.0000    -0.1854     3.7441     3.7441     0.0000
  9 C      6.4080     6.0000    -0.4080     3.8983     3.8983     0.0000
 10 C      6.2254     6.0000    -0.2254     4.0240     4.0240    -0.0000
 11 C      6.5521     6.0000    -0.5521     3.7290     3.7290     0.0000
 12 H      0.8260     1.0000     0.1740     0.9635     0.9635     0.0000
 13 H      0.7963     1.0000     0.2037     0.9408     0.9408    -0.0000
 14 H      0.8227     1.0000     0.1773     0.9341     0.9341     0.0000
 15 H      0.8154     1.0000     0.1846     0.9203     0.9203     0.0000
 16 H      0.8532     1.0000     0.1468     0.9513     0.9513    -0.0000
 17 H      0.8314     1.0000     0.1686     0.9526     0.9526     0.0000
 18 H      0.8068     1.0000     0.1932     0.9595     0.9595     0.0000
 19 H      0.8302     1.0000     0.1698     0.9522     0.9522     0.0000
 20 H      0.5691     1.0000     0.4309     0.8266     0.8266     0.0000
 21 H      0.5569     1.0000     0.4431     0.7743     0.7743     0.0000
 22 H      0.5702     1.0000     0.4298     0.7890     0.7890    -0.0000

  Mayer bond orders larger than 0.100000
B(  0-O ,  6-C ) :   1.1348 B(  0-O , 20-H ) :   0.6715 B(  1-O ,  8-C ) :   1.0005 
B(  1-O , 20-H ) :   0.1454 B(  1-O , 21-H ) :   0.7638 B(  2-O ,  9-C ) :   1.0269 
B(  2-O , 22-H ) :   0.7670 B(  3-N ,  7-C ) :   1.6788 B(  3-N , 10-C ) :   1.5170 
B(  4-C ,  5-C ) :   1.2044 B(  4-C ,  6-C ) :   1.3391 B(  4-C ,  8-C ) :   0.9649 
B(  5-C ,  9-C ) :   0.9039 B(  5-C , 10-C ) :   1.3745 B(  6-C ,  7-C ) :   1.3128 
B(  7-C , 11-C ) :   0.8814 B(  8-C , 12-H ) :   0.9341 B(  8-C , 13-H ) :   0.9559 
B(  9-C , 14-H ) :   0.9654 B(  9-C , 15-H ) :   0.9558 B( 10-C , 16-H ) :   0.9537 
B( 11-C , 17-H ) :   0.9521 B( 11-C , 18-H ) :   0.9717 B( 11-C , 19-H ) :   0.9490 



------------------
HIRSHFELD ANALYSIS
------------------

Total integrated alpha density =     44.999996999
Total integrated beta density  =     44.999996999

  ATOM     CHARGE      SPIN    
   0 O   -0.198698    0.000000
   1 O   -0.197688    0.000000
   2 O   -0.228137    0.000000
   3 N   -0.192774    0.000000
   4 C   -0.028942    0.000000
   5 C   -0.026728    0.000000
   6 C    0.065612    0.000000
   7 C    0.055334    0.000000
   8 C    0.039452    0.000000
   9 C    0.036701    0.000000
  10 C   -0.000580    0.000000
  11 C   -0.078984    0.000000
  12 H    0.043979    0.000000
  13 H    0.035432    0.000000
  14 H    0.029661    0.000000
  15 H    0.038071    0.000000
  16 H    0.034557    0.000000
  17 H    0.034519    0.000000
  18 H    0.035828    0.000000
  19 H    0.035699    0.000000
  20 H    0.134521    0.000000
  21 H    0.172194    0.000000
  22 H    0.160979    0.000000

  TOTAL   0.000006    0.000000

-------
TIMINGS
-------

Total SCF time: 0 days 0 hours 0 min 5 sec 

Total time                  ....       5.702 sec
Sum of individual times     ....       5.621 sec  ( 98.6%)

SCF preparation             ....       0.152 sec  (  2.7%)
Fock matrix formation       ....       4.630 sec  ( 81.2%)
  Startup                   ....       0.013 sec  (  0.3% of F)
  Split-RI-J                ....       0.727 sec  ( 15.7% of F)
  XC integration            ....       3.667 sec  ( 79.2% of F)
    XC Preparation          ....       0.000 sec  (  0.0% of XC)
    Basis function eval.    ....       0.870 sec  ( 23.7% of XC)
    Density eval.           ....       0.730 sec  ( 19.9% of XC)
    XC-Functional eval.     ....       0.108 sec  (  2.9% of XC)
    XC-Potential eval.      ....       0.714 sec  ( 19.5% of XC)
Diagonalization             ....       0.000 sec  (  0.0%)
Density matrix formation    ....       0.042 sec  (  0.7%)
Total Energy calculation    ....       0.024 sec  (  0.4%)
Population analysis         ....       0.411 sec  (  7.2%)
Orbital Transformation      ....       0.037 sec  (  0.7%)
Orbital Orthonormalization  ....       0.000 sec  (  0.0%)
DIIS solution               ....       0.219 sec  (  3.8%)
SOSCF solution              ....       0.106 sec  (  1.9%)
Finished LeanSCF after   5.7 sec

Maximum memory used throughout the entire LEANSCF-calculation: 43.2 MB


           ************************************************************
           *        Program running with 16 parallel MPI-processes    *
           *              working on a common directory               *
           ************************************************************

------------------------------------------------------------------------------
                         ORCA PROPERTY INTEGRAL CALCULATIONS
------------------------------------------------------------------------------

GBWName                                   ... m1_00_Vitamin_B6-GFN1_001-B97-3C-TZ.gbw
Number of atoms                           ...     23
Number of basis functions                 ...    276
Max core memory                           ...   6000 MB

Dipole integrals                          ... YES
Quadrupole integrals                      ...  NO
Linear momentum integrals                 ...  NO
Angular momentum integrals                ...  NO
Higher moments length integrals           ...  NO
Higher moments velocity integrals         ...  NO
Kinetic energy integrals                  ...  NO
GIAO right hand sides                     ...  NO
GIAO dipole derivative integrals          ...  NO
SOC integrals                             ...  NO
EPR diamagnetic integrals (GIAO)          ...  NO
EPR gauge integrals                       ...  NO
Field gradient integrals                  ...  NO (   0 nuclei)
Spin-dipole/Fermi contact integrals       ...  NO (   0 nuclei)
Contact density integrals                 ...  NO (   0 nuclei)
Nucleus-orbit integrals                   ...  NO (   0 nuclei)
Geometric perturbations                   ...  NO (  23 nuclei)

Choice of electric origin   ... Center of mass
Position of electric origin ... ( -0.0911,  0.2803,  0.1666) 
Choice of magnetic origin   ... GIAO
Position of magnetic origin ... (  0.0000,  0.0000,  0.0000) 

Calculating integrals                     ... Electric Dipole (Length)     done (  0.0 sec)

Property integrals calculated in   0.0 sec

Maximum memory used throughout the entire PROPINT-calculation: 16.6 MB


-------------------------------------------------------------------------------
                          DFT DISPERSION CORRECTION                            
                                                                               
                              DFTD3 V3.1  Rev 1                                
                          USING Becke-Johnson damping                          
-------------------------------------------------------------------------------
The B97-3c composite method is recognized
Using three-body term ABC
Active option DFTDOPT                   ...         4   

molecular C6(AA) [au] = 5025.133760 


            DFT-D V3
 parameters
 s6 scaling factor         :     1.0000 
 a1 scaling factor         :     0.3700 
 s8 scaling factor         :     1.5000 
 a2 scaling factor         :     4.1000 
 Damping factor alpha9(ATM):    16.0000 
 ad hoc parameters k1-k3   :    16.0000     1.3333    -4.0000 

 Edisp/kcal,au: -34.569076335725  -0.055089323870 
 E6   /kcal   : -17.613579392 
 E8   /kcal   : -17.011112909 
 E6(ABC)      :   0.055615965 
 % E8         :  49.209046673 
 % E6(ABC)    :  -0.160883571 

-------------------------   ----------------
Dispersion correction           -0.055089324
-------------------------   ----------------

------------------   -----------------
SRB correction            -0.067006817
------------------   -----------------

-------------------------   --------------------
FINAL SINGLE POINT ENERGY      -591.624134478608
-------------------------   --------------------



           ************************************************************
           *        Program running with 16 parallel MPI-processes    *
           *              working on a common directory               *
           ************************************************************
------------------------------------------------------------------------------
                         ORCA SCF GRADIENT CALCULATION
------------------------------------------------------------------------------

Nuc. rep. gradient        (SHARK) ... done (  0.0 sec)
HCore & Overlap gradient  (SHARK) ... done (  0.1 sec)
Split-RIJ-J gradient      (SHARK) ... done (  0.1 sec)
XC gradient                       ... done (  1.9 sec)
Dispersion correction             ... done (  0.1 sec)

-------------------
DISPERSION GRADIENT
-------------------

   1   O   :    0.000493498    0.000759876    0.000039829
   2   O   :   -0.000304013    0.000710488    0.000254285
   3   O   :   -0.000770815   -0.000192889   -0.000524310
   4   N   :    0.000301015   -0.000970207   -0.000041243
   5   C   :   -0.000036262    0.000472990    0.000073362
   6   C   :   -0.000358555   -0.000781910    0.000007290
   7   C   :    0.000561040    0.000402081    0.000032471
   8   C   :    0.000838961   -0.000283016    0.000054311
   9   C   :   -0.000465289    0.001039926    0.000114513
  10   C   :   -0.000915522   -0.000550753   -0.000123245
  11   C   :    0.000226741   -0.001122253   -0.000014293
  12   C   :    0.000921760   -0.000105214    0.000076706
  13   H   :   -0.000250019    0.000541643   -0.000312094
  14   H   :   -0.000395839    0.000400384    0.000172191
  15   H   :   -0.000362412   -0.000303843   -0.000046335
  16   H   :   -0.000531156   -0.000233214    0.000243026
  17   H   :    0.000055198   -0.000550483   -0.000031534
  18   H   :    0.000446598    0.000018379    0.000234536
  19   H   :    0.000391041   -0.000124559    0.000030710
  20   H   :    0.000480550    0.000047343   -0.000148075
  21   H   :    0.000210125    0.000504362    0.000057777
  22   H   :   -0.000190210    0.000392475    0.000424370
  23   H   :   -0.000346435   -0.000071609   -0.000574247

Difference to translation invariance:
           :    0.0000000000    0.0000000000    0.0000000000

Difference to rotation invariance:
           :    0.0000000000   -0.0000000000   -0.0000000000

Norm of the Dispersion gradient    ...    0.0037201147
RMS gradient                       ...    0.0004478492
MAX gradient                       ...    0.0011222526
SRB correction                   ... done

------------------
CARTESIAN GRADIENT
------------------

   1   O   :   -0.004408618   -0.004850041    0.001823241
   2   O   :   -0.003925255   -0.012257132   -0.003863342
   3   O   :    0.009395987   -0.005017860    0.005887328
   4   N   :   -0.000330490    0.006184347    0.000886551
   5   C   :    0.003497116    0.001136436    0.001086134
   6   C   :    0.008182596    0.005551885   -0.000745638
   7   C   :    0.004415477   -0.003374493   -0.000206065
   8   C   :   -0.007587286   -0.000363578   -0.001512429
   9   C   :    0.001635224    0.013140169    0.001865425
  10   C   :   -0.012214706    0.004085528   -0.001745649
  11   C   :    0.002127939   -0.004974278    0.000031362
  12   C   :    0.004495894    0.000257694    0.000258715
  13   H   :    0.000884695   -0.000257417   -0.006509794
  14   H   :   -0.005025004   -0.002178875    0.004789169
  15   H   :   -0.000917504   -0.004282079   -0.004160530
  16   H   :   -0.000206533    0.000706447    0.005148305
  17   H   :    0.000083958   -0.001406606    0.000190568
  18   H   :   -0.001806912   -0.000453783    0.001798681
  19   H   :    0.002155155   -0.001962728    0.000141121
  20   H   :   -0.001447149   -0.000255374   -0.002078083
  21   H   :    0.001382365    0.005736676   -0.001497981
  22   H   :    0.001054067    0.002172278    0.002037365
  23   H   :   -0.001441016    0.002662786   -0.003624455

Difference to translation invariance:
           :    0.0000000000    0.0000000000   -0.0000000000

Difference to rotation invariance:
           :   -0.0000006697   -0.0000357390    0.0000391745

Norm of the Cartesian gradient     ...    0.0356119121
RMS gradient                       ...    0.0042871704
MAX gradient                       ...    0.0131401688

-------
TIMINGS
-------

Total SCF gradient time     ....        2.113 sec

Densities                   ....       0.001 sec  (  0.1%)
One electron gradient       ....       0.051 sec  (  2.4%)
RI-J Coulomb gradient       ....       0.131 sec  (  6.2%)
XC gradient                 ....       1.861 sec  ( 88.1%)

Maximum memory used throughout the entire SCFGRAD-calculation: 51.4 MB
------------------------------------------------------------------------------
                         ORCA GEOMETRY RELAXATION STEP
------------------------------------------------------------------------------

Reading the OPT-File                    .... done
Getting information on internals        .... done
Copying old internal coords+grads       .... done
Making the new internal coordinates     .... (2022 redundants) done
Validating the new internal coordinates .... (2022 redundants) done
Calculating the B-matrix                .... done
Calculating the G,G- and P matrices     .... done
Transforming gradient to internals      .... done
Projecting the internal gradient        .... done
Number of atoms                         ....  23
Number of internal coordinates          .... 104
Current Energy                          ....  -591.624134479 Eh
Current gradient norm                   ....     0.035611912 Eh/bohr
Maximum allowed component of the step   ....  0.300
Current trust radius                    ....  0.300
Evaluating the initial hessian          ....  (Almloef) done
Projecting the Hessian                  .... done
Forming the augmented Hessian           .... done
Diagonalizing the augmented Hessian     .... done
Last element of RFO vector              ....  0.954638497
Lowest eigenvalues of augmented Hessian:
 -0.003670694  0.012495968  0.012888440  0.013297559  0.020264709
Length of the computed step             ....  0.311916247
Warning: the length of the step is outside the trust region - taking restricted step instead
The input lambda is                     ....     0.010443
   iter:   5  x=    0.004154  g=  292.644999 f(x)=     0.670284
   iter:  10  x=   -0.004354  g=   10.059922 f(x)=     0.000300
The output lambda is                    ....    -0.004354 (13 iterations)
The final length of the internal step   ....  0.300000000
Converting the step to Cartesian space:
 Initial RMS(Int)=    0.0294174203
Transforming coordinates:
 Iter   0:  RMS(Cart)=    0.0846762333 RMS(Int)=    1.2245484710
 Iter   5:  RMS(Cart)=    0.0000009138 RMS(Int)=    0.0000005781
done
Storing new coordinates                 .... done

                                .--------------------.
          ----------------------|Geometry convergence|-------------------------
          Item                value                   Tolerance       Converged
          ---------------------------------------------------------------------
          RMS gradient        0.0028184649            0.0000300000      NO
          MAX gradient        0.0096351339            0.0001000000      NO
          RMS step            0.0294174203            0.0020000000      NO
          MAX step            0.1299279812            0.0040000000      NO
          ........................................................
          Max(Bonds)      0.0131      Max(Angles)    1.39
          Max(Dihed)        7.44      Max(Improp)    0.00
          ---------------------------------------------------------------------

The optimization has not yet converged - more geometry cycles are needed


    ---------------------------------------------------------------------------
                         Redundant Internal Coordinates
                            (Angstroem and degrees)

        Definition                    Value    dE/dq     Step     New-Value
    ----------------------------------------------------------------------------
     1. B(C   5,C   4)                1.4020 -0.001197  0.0009    1.4029   
     2. B(C   6,O   0)                1.3540 -0.000899  0.0006    1.3546   
     3. B(C   6,C   4)                1.3954 -0.002286  0.0012    1.3966   
     4. B(C   7,C   6)                1.4040 -0.001771  0.0016    1.4056   
     5. B(C   7,N   3)                1.3230 -0.003909  0.0030    1.3260   
     6. B(C   8,C   4)                1.5190  0.002942 -0.0046    1.5144   
     7. B(C   8,O   1)                1.4194 -0.009635  0.0101    1.4295   
     8. B(C   9,C   5)                1.5167  0.005377 -0.0072    1.5095   
     9. B(C   9,O   2)                1.4145 -0.006147  0.0063    1.4208   
    10. B(C  10,C   5)                1.3877  0.002604 -0.0022    1.3855   
    11. B(C  10,N   3)                1.3313 -0.001906  0.0016    1.3329   
    12. B(C  11,C   7)                1.4998  0.003089 -0.0039    1.4959   
    13. B(H  12,C   8)                1.0971  0.005915 -0.0088    1.0883   
    14. B(H  13,C   8)                1.0987  0.006749 -0.0101    1.0886   
    15. B(H  14,C   9)                1.1021  0.005169 -0.0078    1.0942   
    16. B(H  15,C   9)                1.0981  0.004555 -0.0068    1.0913   
    17. B(H  16,C  10)                1.0863  0.001276 -0.0018    1.0845   
    18. B(H  17,C  11)                1.0912  0.000962 -0.0014    1.0898   
    19. B(H  18,C  11)                1.0886  0.002723 -0.0039    1.0847   
    20. B(H  19,C  11)                1.0913  0.000884 -0.0013    1.0900   
    21. B(H  20,O   1)                1.8335  0.001323 -0.0131    1.8204   
    22. B(H  20,O   0)                0.9792  0.004077 -0.0038    0.9753   
    23. B(H  21,O   1)                0.9658  0.001479 -0.0015    0.9642   
    24. B(H  22,O   2)                0.9657  0.002033 -0.0021    0.9636   
[...]
     35      -0.000020   0.000009  -0.000024
     36      -0.000598  -0.002823   0.000098
     37      -0.000166  -0.008483   0.000075
     38       0.006594   0.012963   0.000022
     39       0.006368  -0.002471  -0.000558
     40       0.007144   0.001157  -0.000279
     41       0.003384   0.002705   0.000169
     42      -0.000322   0.000066  -0.001398
     43       0.000766   0.000368   0.000684
     44       0.000091   0.000110  -0.002531
     45      -0.002162  -0.000241   0.008599
     46       0.000867   0.000133  -0.007666
     47       0.001946   0.000409  -0.009834
     48      -0.000207  -0.000002   0.000159
     49       0.000678   0.000394   0.000039
     50       0.000125   0.000041  -0.000415
     51       0.000079  -0.000050  -0.000072
     52       0.000982  -0.000054  -0.000027
     53       0.000622  -0.000040  -0.000008
     54       0.000507  -0.000072  -0.000041
     55      -0.002348   0.000099   0.000071
     56      -0.000190   0.000014   0.000002
     57       0.000062  -0.000017  -0.000039
     58       0.000876  -0.000006  -0.000064
     59      -0.000210  -0.000021   0.000078
     60       0.679980   0.014960   0.000284
     61      -0.687269  -0.010289  -0.000051
     62      -0.246552  -0.006077  -0.000105
     63       0.009490  -0.118679  -0.002558
     64       0.007891  -0.395030  -0.008339
     65      -0.016243   0.908233   0.019265
     66       0.000594  -0.011941   0.559534
     67      -0.000110   0.006559  -0.308549
     68       0.000247   0.016180  -0.766243


-----------
IR SPECTRUM
-----------

 Mode   freq       eps      Int      T**2         TX        TY        TZ
       cm**-1   L/(mol*cm) km/mol    a.u.
----------------------------------------------------------------------------
  6:     79.47   0.000298    1.51  0.001170  (-0.027155  0.002196 -0.020691)
  7:     98.03   0.000060    0.30  0.000192  (-0.012845  0.004348 -0.002829)
  8:    100.97   0.000733    3.70  0.002266  ( 0.026622 -0.033858 -0.020268)
  9:    122.14   0.000859    4.34  0.002196  (-0.011099 -0.013792 -0.043385)
 10:    125.16   0.000480    2.42  0.001196  ( 0.001797  0.021527  0.027002)
 11:    199.56   0.000557    2.81  0.000870  ( 0.007307 -0.009592  0.026923)
 12:    248.77   0.000863    4.36  0.001083  ( 0.022381 -0.020574 -0.012599)
 13:    272.01   0.000490    2.48  0.000562  ( 0.016229  0.016846 -0.003899)
 14:    295.87   0.006484   32.77  0.006838  (-0.049462 -0.061541 -0.024591)
 15:    323.38   0.003682   18.60  0.003553  (-0.040212 -0.043860 -0.003461)
 16:    342.01   0.013382   67.63  0.012210  ( 0.089078  0.063726  0.014638)
 17:    376.45   0.006945   35.10  0.005757  (-0.009199  0.052879  0.053631)
 18:    390.83   0.002121   10.72  0.001694  (-0.039901  0.007800  0.006380)
 19:    440.91   0.018599   93.99  0.013164  (-0.102755  0.033900  0.038155)
 20:    506.54   0.001332    6.73  0.000821  ( 0.026426 -0.007431 -0.008198)
 21:    534.85   0.000404    2.04  0.000236  (-0.005024 -0.014320  0.002309)
 22:    539.91   0.002272   11.48  0.001313  (-0.007208  0.025831  0.024375)
 23:    581.09   0.002081   10.52  0.001118  (-0.001503 -0.032337  0.008356)
 24:    631.04   0.000695    3.51  0.000344  ( 0.003224 -0.008787  0.016001)
 25:    677.64   0.001342    6.78  0.000618  ( 0.024414  0.004665 -0.000058)
 26:    743.52   0.000361    1.82  0.000151  ( 0.002941  0.009596 -0.007121)
 27:    770.58   0.007120   35.98  0.002883  (-0.009399 -0.034866  0.039740)
 28:    783.28   0.007610   38.46  0.003032  (-0.030555  0.036516 -0.027657)
 29:    882.61   0.003272   16.54  0.001157  ( 0.009531  0.004400  0.032354)
 30:    911.10   0.003434   17.35  0.001176  (-0.002219 -0.026004 -0.022246)
 31:    946.84   0.001803    9.11  0.000594  (-0.007028  0.002339 -0.023221)
 32:    964.73   0.006100   30.83  0.001973  ( 0.021734 -0.003749  0.038560)
 33:    987.65   0.015559   78.63  0.004916  (-0.013853 -0.047271 -0.049896)
 34:   1009.48   0.016447   83.12  0.005084  (-0.050808  0.020673 -0.045557)
 35:   1025.25   0.002714   13.71  0.000826  (-0.026970 -0.003670  0.009228)
 36:   1047.25   0.000390    1.97  0.000116  ( 0.002321 -0.000036 -0.010531)
 37:   1086.74   0.002903   14.67  0.000834  (-0.001722  0.026750 -0.010727)
 38:   1191.37   0.004080   20.62  0.001069  ( 0.015675  0.002658  0.028564)
 39:   1199.86   0.001186    5.99  0.000308  (-0.009259 -0.002685 -0.014676)
 40:   1250.40   0.018459   93.28  0.004607  ( 0.021623  0.063733  0.008795)
 41:   1262.15   0.004544   22.96  0.001123  (-0.031998 -0.009105 -0.004083)
 42:   1299.20   0.001119    5.66  0.000269  (-0.010614  0.010371  0.006977)
 43:   1316.00   0.002456   12.41  0.000582  (-0.023616 -0.000029  0.004967)
 44:   1358.31   0.009012   45.54  0.002070  (-0.039238 -0.019669 -0.012000)
 45:   1366.00   0.007610   38.46  0.001739  ( 0.024970  0.033104  0.004378)
 46:   1380.41   0.021738  109.86  0.004914  (-0.053163 -0.045480 -0.004430)
 47:   1393.26   0.006063   30.64  0.001358  ( 0.011685 -0.030325 -0.017376)
 48:   1407.52   0.006034   30.49  0.001338  ( 0.034493  0.005082  0.011051)
 49:   1409.99   0.011539   58.32  0.002554  ( 0.037916  0.003872  0.033186)
 50:   1439.88   0.011330   57.26  0.002456  ( 0.011890  0.047791  0.005500)
 51:   1480.02   0.002246   11.35  0.000474  (-0.006536 -0.016902  0.012047)
 52:   1482.79   0.002199   11.11  0.000463  (-0.005631 -0.013341 -0.015907)
 53:   1487.73   0.001028    5.20  0.000216  (-0.009591  0.009921 -0.005023)
 54:   1514.11   0.000105    0.53  0.000022  ( 0.004036  0.002216 -0.000727)
 55:   1520.35   0.001320    6.67  0.000271  ( 0.014336  0.007106 -0.003875)
 56:   1582.48   0.004182   21.14  0.000825  (-0.005673  0.026997  0.007986)
 57:   1619.59   0.001243    6.28  0.000240  ( 0.009069 -0.011992  0.003674)
 58:   2974.83   0.011617   58.71  0.001219  (-0.015580 -0.027508  0.014807)
 59:   3003.73   0.004425   22.36  0.000460  ( 0.020978  0.004041  0.001817)
 60:   3026.56   0.004032   20.37  0.000416  ( 0.011317 -0.002608  0.016758)
 61:   3028.82   0.005418   27.38  0.000558  ( 0.014950 -0.014009 -0.011767)
 62:   3053.21   0.003296   16.65  0.000337  ( 0.000801  0.001721 -0.018255)
 63:   3075.18   0.002906   14.69  0.000295  (-0.015843 -0.005148  0.004174)
 64:   3095.38   0.006970   35.22  0.000703  (-0.013713 -0.022507 -0.002839)
 65:   3116.73   0.002531   12.79  0.000253  ( 0.008902 -0.013182 -0.000650)
 66:   3466.20   0.059779  302.10  0.005382  ( 0.045752 -0.052959 -0.022001)
 67:   3731.09   0.004480   22.64  0.000375  (-0.002293  0.001727  0.019144)
 68:   3733.88   0.002911   14.71  0.000243  ( 0.001199 -0.001683 -0.015460)

* The epsilon (eps) is given for a Dirac delta lineshape.
** The dipole moment derivative (T) already includes vibrational overlap.

The first frequency considered to be a vibration is 6
The total number of vibrations considered is 63


--------------------------
THERMOCHEMISTRY AT 298.15K
--------------------------

Temperature         ...   298.15 K
Pressure            ...     1.00 atm
Total Mass          ...   169.18 AMU
Quasi RRHO          ...     True
Cut-Off Frequency   ...     1.00 cm^-1

Throughout the following assumptions are being made:
  (1) The electronic state is orbitally nondegenerate
  (2) There are no thermally accessible electronically excited states
  (3) Hindered rotations indicated by low frequency modes are not
      treated as such but are treated as vibrations and this may
      cause some error
  (4) All equations used are the standard statistical mechanics
      equations for an ideal gas
  (5) All vibrations are strictly harmonic

freq.      79.47  E(vib)   ...       0.49 
freq.      98.03  E(vib)   ...       0.46 
freq.     100.97  E(vib)   ...       0.46 
freq.     122.14  E(vib)   ...       0.43 
freq.     125.16  E(vib)   ...       0.43 
freq.     199.56  E(vib)   ...       0.35 
freq.     248.77  E(vib)   ...       0.31 
freq.     272.01  E(vib)   ...       0.29 
freq.     295.87  E(vib)   ...       0.27 
freq.     323.38  E(vib)   ...       0.25 
freq.     342.01  E(vib)   ...       0.23 
freq.     376.45  E(vib)   ...       0.21 
freq.     390.83  E(vib)   ...       0.20 
freq.     440.91  E(vib)   ...       0.17 
freq.     506.54  E(vib)   ...       0.14 
freq.     534.85  E(vib)   ...       0.13 
freq.     539.91  E(vib)   ...       0.12 
freq.     581.09  E(vib)   ...       0.11 
freq.     631.04  E(vib)   ...       0.09 
freq.     677.64  E(vib)   ...       0.08 
freq.     743.52  E(vib)   ...       0.06 
freq.     770.58  E(vib)   ...       0.05 
freq.     783.28  E(vib)   ...       0.05 
freq.     882.61  E(vib)   ...       0.04 
freq.     911.10  E(vib)   ...       0.03 
freq.     946.84  E(vib)   ...       0.03 
freq.     964.73  E(vib)   ...       0.03 
freq.     987.65  E(vib)   ...       0.02 
freq.    1009.48  E(vib)   ...       0.02 
freq.    1025.25  E(vib)   ...       0.02 
freq.    1047.25  E(vib)   ...       0.02 
freq.    1086.74  E(vib)   ...       0.02 
freq.    1191.37  E(vib)   ...       0.01 
freq.    1199.86  E(vib)   ...       0.01 
freq.    1250.40  E(vib)   ...       0.01 
freq.    1262.15  E(vib)   ...       0.01 
freq.    1299.20  E(vib)   ...       0.01 
freq.    1316.00  E(vib)   ...       0.01 
freq.    1358.31  E(vib)   ...       0.01 
freq.    1366.00  E(vib)   ...       0.01 
freq.    1380.41  E(vib)   ...       0.01 
freq.    1393.26  E(vib)   ...       0.00 
freq.    1407.52  E(vib)   ...       0.00 
freq.    1409.99  E(vib)   ...       0.00 
freq.    1439.88  E(vib)   ...       0.00 
freq.    1480.02  E(vib)   ...       0.00 
freq.    1482.79  E(vib)   ...       0.00 
freq.    1487.73  E(vib)   ...       0.00 
freq.    1514.11  E(vib)   ...       0.00 
freq.    1520.35  E(vib)   ...       0.00 
freq.    1582.48  E(vib)   ...       0.00 
freq.    1619.59  E(vib)   ...       0.00 
freq.    2974.83  E(vib)   ...       0.00 
freq.    3003.73  E(vib)   ...       0.00 
freq.    3026.56  E(vib)   ...       0.00 
freq.    3028.82  E(vib)   ...       0.00 
freq.    3053.21  E(vib)   ...       0.00 
freq.    3075.18  E(vib)   ...       0.00 
freq.    3095.38  E(vib)   ...       0.00 
freq.    3116.73  E(vib)   ...       0.00 
freq.    3466.20  E(vib)   ...       0.00 
freq.    3731.09  E(vib)   ...       0.00 
freq.    3733.88  E(vib)   ...       0.00 

------------
INNER ENERGY
------------

The inner energy is: U= E(el) + E(ZPE) + E(vib) + E(rot) + E(trans)
    E(el)   - is the total energy from the electronic structure calculation
              = E(kin-el) + E(nuc-el) + E(el-el) + E(nuc-nuc)
    E(ZPE)  - the the zero temperature vibrational energy from the frequency calculation
    E(vib)  - the the finite temperature correction to E(ZPE) due to population
              of excited vibrational states
    E(rot)  - is the rotational thermal energy
    E(trans)- is the translational thermal energy

Summary of contributions to the inner energy U:
Electronic energy                ...   -591.62754963 Eh
Zero point energy                ...      0.18524400 Eh     116.24 kcal/mol
Thermal vibrational correction   ...      0.00909074 Eh       5.70 kcal/mol
Thermal rotational correction    ...      0.00141627 Eh       0.89 kcal/mol
Thermal translational correction ...      0.00141627 Eh       0.89 kcal/mol
-----------------------------------------------------------------------
Total thermal energy                   -591.43038234 Eh


Summary of corrections to the electronic energy:
(perhaps to be used in another calculation)
Total thermal correction                  0.01192329 Eh       7.48 kcal/mol
Non-thermal (ZPE) correction              0.18524400 Eh     116.24 kcal/mol
-----------------------------------------------------------------------
Total correction                          0.19716729 Eh     123.72 kcal/mol


--------
ENTHALPY
--------

The enthalpy is H = U + kB*T
                kB is Boltzmann's constant
Total thermal energy              ...   -591.43038234 Eh 
Thermal Enthalpy correction       ...      0.00094421 Eh       0.59 kcal/mol
-----------------------------------------------------------------------
Total Enthalpy                    ...   -591.42943813 Eh


Note: Only C1 symmetry has been detected, increase convergence thresholds 
      if your molecule has a higher symmetry. Symmetry factor of 1.0 is   
      used for the rotational entropy correction. 
 

Note: Rotational entropy computed according to Herzberg 
Infrared and Raman Spectra, Chapter V,1, Van Nostrand Reinhold, 1945 
Point Group:  C1, Symmetry Number:   1  
Rotational constants in cm-1:     0.041259     0.027581     0.017610 

Vibrational entropy computed according to the QRRHO of S. Grimme
Chem.Eur.J. 2012 18 9955 using a reference frequency of 100.0 cm-1


-------
ENTROPY
-------

The entropy contributions are T*S = T*(S(el)+S(vib)+S(rot)+S(trans))
     S(el)   - electronic entropy
     S(vib)  - vibrational entropy
     S(rot)  - rotational entropy
     S(trans)- translational entropy
The entropies will be listed as multiplied by the temperature to get
units of energy

Electronic entropy                ...      0.00000000 Eh      0.00 kcal/mol
Vibrational entropy               ...      0.01559808 Eh      9.79 kcal/mol
Rotational entropy                ...      0.01461780 Eh      9.17 kcal/mol
Translational entropy             ...      0.01961591 Eh     12.31 kcal/mol
-----------------------------------------------------------------------
Final entropy term                ...      0.04983179 Eh     31.27 kcal/mol

In case the symmetry of your molecule has not been determined correctly
or in case you have a reason to use a different symmetry number we print 
out the resulting rotational entropy values for sn=1,12:

 non-linear molecules -----------------------------------
|  sn= 1 | S(rot)=       0.01461780 Eh      9.17 kcal/mol|
|  sn= 2 | S(rot)=       0.01396334 Eh      8.76 kcal/mol|
|  sn= 3 | S(rot)=       0.01358051 Eh      8.52 kcal/mol|
|  sn= 4 | S(rot)=       0.01330889 Eh      8.35 kcal/mol|
|  sn= 5 | S(rot)=       0.01309820 Eh      8.22 kcal/mol|
|  sn= 6 | S(rot)=       0.01292605 Eh      8.11 kcal/mol|
|  sn= 7 | S(rot)=       0.01278051 Eh      8.02 kcal/mol|
|  sn= 8 | S(rot)=       0.01265443 Eh      7.94 kcal/mol|
|  sn= 9 | S(rot)=       0.01254322 Eh      7.87 kcal/mol|
|  sn=10 | S(rot)=       0.01244374 Eh      7.81 kcal/mol|
|  sn=11 | S(rot)=       0.01235375 Eh      7.75 kcal/mol|
|  sn=12 | S(rot)=       0.01227160 Eh      7.70 kcal/mol|
 linear molecules ---------------------------------------
|  Dinfh | S(rot)=       0.00913964 Eh      5.74 kcal/mol|
|  Cinfv | S(rot)=       0.00979410 Eh      6.15 kcal/mol|
 --------------------------------------------------------


-------------------
GIBBS FREE ENERGY
-------------------

The Gibbs free energy is G = H - T*S

Total enthalpy                    ...   -591.42943813 Eh 
Total entropy correction          ...     -0.04983179 Eh    -31.27 kcal/mol
-----------------------------------------------------------------------
Final Gibbs free energy         ...   -591.47926992 Eh

For completeness - the Gibbs free energy minus the electronic energy
G-E(el)                           ...      0.14827971 Eh     93.05 kcal/mol


Maximum memory used throughout the entire PROP-calculation: 69.6 MB

--------------------------------
SUGGESTED CITATIONS FOR THIS RUN
--------------------------------

Below you find a list of papers that are relevant to this ORCA run
We neither can nor want to force you to cite these papers, but we appreciate if you do
You receive ORCA, which is the product of decades of hard work by many enthusiastic individuals, for free
The only thing we kindly ask in return is that you cite our papers,
We deeply appreciate it, if you show your appreciation for ORCA by not just citing the generic ORCA reference.

Please note that relegating all ORCA citations to the supporting information does *not* help us.
SI sections are not indexed - citations you put there will not count into any citation statistics
But we need these citations in order to attract the funding resources that allow us to do what we are doing

Therefore, if you are a happy ORCA user, please consider citing a few of the papers listed below in the main body of your paper

In addition to the list printed below, the program has created the file m1_00_Vitamin_B6-GFN1_001-B97-3C-TZ.bibtex that contains the list in bibtex format
You can import this file easily into all common literature databanks and citation aid programs


List of essential papers. We consider these as the minimum necessary citations

  1. Neese,F.
     Software update: the ORCA program system, version 5.0
     WIRES Comput. Molec. Sci., 2022 12(1)e1606
     doi.org/10.1002/wcms.1606

List of papers to cite with high priority. The work reported in these papers was absolutely
necessary for this run to complete.
Our perspective: the developers of density functionals and basis sets usually get cited in chemistry papers
Good! But without the algorithms to do something with them, the functionals or basis sets would not do anything.
Hence, in our opinion, the algorithm design and method developments papers are equally worthy of getting cited

  1. Neese,F.
     An improvement of the resolution of the identity approximation for the formation of the Coulomb matrix
     J. Comp. Chem., 2003 24(14)1740-1747
     doi.org/10.1002/jcc.10318
  2. Bykov,D.; Petrenko,T.; Izsak,R.; Kossmann,S.; Becker,U.; Valeev,E.; Neese,F.
     Efficient implementation of the analytic second derivatives of Hartree-Fock and hybrid DFT energies: a detailed analysis of different approximations
     Molec. Phys., 2015 113 1961-1977
     doi.org/10.1080/00268976.2015.1025114
  3. Neese,F.
     The SHARK Integral Generation and Digestion System
     J. Comp. Chem., 2022  1-16
     doi.org/10.1002/jcc.26942
  4. Grimme,S.; Antony,J.; Ehrlich,S.; Krieg,H.
     A consistent and accurate ab initio parametrization of density functional dispersion correction (DFT-D) for the 94 elements H-Pu
     J. Chem. Phys., 2010 132 154104
     doi.org/10.1063/1.3382344
  5. Grimme,S.; Ehrlich,S.; Goerigk,L.
     Effect of the damping function in dispersion corrected density functional theory
     J. Comput. Chem., 2011 32(7)1456-1465
     doi.org/10.1002/jcc.21759

List of suggested additional citations. These are papers that are important in the 'surrounding' of 
of this run, or papers that preceded the highly important papers. If you like your results we are grateful for a citation.

  1. Neese,F.
     The ORCA program system
     WIRES Comput. Molec. Sci., 2012 2(1)73-78
     doi.org/10.1002/wcms.81
  2. Neese,F.
     Software update: the ORCA program system, version 4.0
     WIRES Comput. Molec. Sci., 2018 8(1)1-6
     doi.org/10.1002/wcms.1327
  3. Neese,F.; Wennmohs,F.; Becker,U.; Riplinger,C.
     The ORCA quantum chemistry program package
     J. Chem. Phys., 2020 152 Art. No. L224108
     doi.org/10.1063/5.0004608

List of optional additional citations

  1. Neese,F.
     Approximate second-order SCF convergence for spin unrestricted wavefunctions
     Chem. Phys. Lett., 2000 325(1-3)93-98
     doi.org/10.1016/s0009-2614(00)00662-x

Timings for individual modules:

Sum of individual times          ...      164.041 sec (=   2.734 min)
Startup calculation              ...       24.750 sec (=   0.412 min)  15.1 %
SCF iterations                   ...       38.321 sec (=   0.639 min)  23.4 %
Property integrals               ...       35.785 sec (=   0.596 min)  21.8 %
SCF Response                     ...       25.107 sec (=   0.418 min)  15.3 %
Property calculations            ...       16.417 sec (=   0.274 min)  10.0 %
SCF Gradient evaluation          ...       23.614 sec (=   0.394 min)  14.4 %
Geometry relaxation              ...        0.048 sec (=   0.001 min)   0.0 %
                             ****ORCA TERMINATED NORMALLY****
TOTAL RUN TIME: 0 days 0 hours 2 minutes 46 seconds 249 msec
