
                                 *****************
                                 * O   R   C   A *
                                 *****************

                                            #,                                       
                                            ###                                      
                                            ####                                     
                                            #####                                    
                                            ######                                   
                                           ########,                                 
                                     ,,################,,,,,                         
                               ,,#################################,,                 
                          ,,##########################################,,             
                       ,#########################################, ''#####,          
                    ,#############################################,,   '####,        
                  ,##################################################,,,,####,       
                ,###########''''           ''''###############################       
              ,#####''   ,,,,##########,,,,          '''####'''          '####       
            ,##' ,,,,###########################,,,                        '##       
           ' ,,###''''                  '''############,,,                           
         ,,##''                                '''############,,,,        ,,,,,,###''
      ,#''                                            '''#######################'''  
     '                                                          ''''####''''         
             ,#######,   #######,   ,#######,      ##                                
            ,#'     '#,  ##    ##  ,#'     '#,    #''#        ,####,   ,####,        
            ##       ##  ##   ,#'  ##            #'  '#       #'       #'  '#        
            ##       ##  #######   ##           ,######,      #####,   #    #        
            '#,     ,#'  ##    ##  '#,     ,#' ,#      #,     #,   #   #,  ,#        
             '#######'   ##     ##  '#######'  #'      '#     '####' # '####'        



                #########################################################
                #                        -***-                          #
                #          Department of theory and spectroscopy        #
                #                                                       #
                #                      Frank Neese                      #
                #                                                       #
                #     Directorship, Architecture, Infrastructure        #
                #                    SHARK, DRIVERS                     #
                #        Core code/Algorithms in most modules           #
                #                                                       #
                #        Max Planck Institute fuer Kohlenforschung      #
                #                Kaiser Wilhelm Platz 1                 #
                #                 D-45470 Muelheim/Ruhr                 #
                #                      Germany                          #
                #                                                       #
                #                  All rights reserved                  #
                #                        -***-                          #
                #########################################################


                         Program Version 6.0.1  -  RELEASE   -


 With contributions from (in alphabetic order):
[Max-Planck-Institut fuer Kohlenforschung]                               
  Daniel Aravena         : Magnetic Suceptibility                        
  Michael Atanasov       : Ab Initio Ligand Field Theory (pilot matlab implementation)
  Alexander A. Auer      : GIAO ZORA, VPT2 properties, NMR spectrum      
  Ute Becker             : All parallelization in ORCA, NUMFREQ, NUMCALC 
  Giovanni Bistoni       : ED, misc. LED, open-shell LED, HFLD           
  Martin Brehm           : Molecular dynamics                            
  Dmytro Bykov           : pre 5.0 version of the SCF Hessian            
  Marcos Casanova-Páez   : Triplet and SCS-CIS(D). UHF-(DLPNO)-IP/EA/STEOM-CCSD. UHF-CVS-IP/STEOM-CCSD   
  Vijay G. Chilkuri      : MRCI spin determinant printing, contributions to CSF-ICE 
  Pauline Colinet        : FMM embedding                                 
  Dipayan Datta          : RHF DLPNO-CCSD density                        
  Achintya Kumar Dutta   : EOM-CC, STEOM-CC                              
  Nicolas Foglia         : Exact transition moments, OPA infrastructure, MCD improvements    
  Dmitry Ganyushin       : Spin-Orbit,Spin-Spin,Magnetic field MRCI      
  Miquel Garcia-Rates    : C-PCM and meta-GGA Hessian, CCSD/C-PCM, Gaussian charge scheme 
  Tiago L. C. Gouveia    : GS-ROHF, GS-ROCIS                             
  Yang Guo               : DLPNO-NEVPT2, F12-NEVPT2, CIM, IAO-localization        
  Andreas Hansen         : Spin unrestricted coupled pair/coupled cluster methods 
  Ingolf Harden          : AUTO-CI MPn and infrastructure                
  Benjamin Helmich-Paris : MC-RPA, TRAH-(SCF,CASSCF), AVAS, COSX integrals, SCF dyn. polar. 
  Lee Huntington         : MR-EOM, pCC                                   
  Robert Izsak           : Overlap fitted RIJCOSX, COSX-SCS-MP3, EOM     
  Riya Kayal             : Wick's Theorem for AUTO-CI, AUTO-CI UHF-CCSDT 
  Emily Kempfer          : AUTO-CI, RHF CISDT and CCSDT                  
  Christian Kollmar      : KDIIS, OOCD, Brueckner-CCSD(T), CCSD density, CASPT2, CASPT2-K, improved NEVPT2 
  Axel Koslowski         : Symmetry handling                             
  Simone Kossmann        : meta-GGA functionals, TD-DFT gradient, OOMP2, (MP2 Hessian; deprecated post 5.0) 
  Lucas Lang             : DCDCAS                                        
  Marvin Lechner         : AUTO-CI (C++ implementation), FIC-MRCC        
  Spencer Leger          : CASSCF response                               
  Dagmar Lenk            : GEPOL surface, SMD, ORCA-2-JSON               
  Dimitrios Liakos       : Extrapolation schemes; Compound Job, initial MDCI parallelization 
  Dimitrios Manganas     : Further ROCIS development; embedding schemes. LFT, Crystal Embedding 
  Dimitrios Pantazis     : SARC Basis sets                               
  Anastasios Papadopoulos: AUTO-CI, single reference methods and gradients 
  Taras Petrenko         : pre 6.0 DFT Hessian and TD-DFT gradient, (ASA, deprecated), ECA, 1-Electron XAS/XES, NRVS 
  Peter Pinski           : DLPNO-MP2, DLPNO-MP2 Gradient                 
  Christoph Reimann      : Effective Core Potentials                     
  Marius Retegan         : Local ZFS, SOC                                
  Christoph Riplinger    : Optimizer, TS searches, QM/MM, DLPNO-CCSD(T), (RO)-DLPNO pert. Triples 
  Michael Roemelt        : Original ROCIS implementation                 
  Masaaki Saitow         : Open-shell DLPNO-CCSD energy and density      
  Barbara Sandhoefer     : DKH picture change effects                    
  Kantharuban Sivalingam : CASSCF convergence/infrastructure, NEVPT2 and variants, FIC-MRCI 
  Bernardo de Souza      : ESD, SOC TD-DFT                               
  Georgi L. Stoychev     : AutoAux, RI-MP2 NMR, DLPNO-MP2 response, X2C  
  Van Anh Tran           : RI-MP2 g-tensors                              
  Willem Van den Heuvel  : Paramagnetic NMR                              
  Zikuan Wang            : NOTCH, Electric field optimization            
  Frank Wennmohs         : Technical directorship and infrastructure     
  Hang Xu                : AUTO-CI-Response properties                   
                                                                         
[FACCTs GmbH]                                                            
  Markus Bursch, Miquel Garcia-Rates, Christoph Riplinger, Bernardo de Souza, Georgi L. Stoychev 
                                                                 
  APM, Basis sets (HGBS, AHGBS, def-TZVP (Ac-Lr), def2-XVPD (La-Lu)), CI-OPT, improved COSX, DLPNO-Multilevel,           
  DOCKER, DRACO, updates on ESD, GOAT, IRC, LR-CPCM, MBIS, meta-GGA TD-DFT gradient, ML-optimized integration grids, 
  MM, NACMEs, nearIR, NEB, NEB-TS, NL-DFT gradient (VV10), 2- and 3-layer-ONIOM, interface openCOSMO-RS, QMMM,   
  Crystal-QMMM, SF, symmetry and pop. for TD-DFT, r2SCAN hybrids, SOLVATOR                                   
                                                                         
[Other institutions]                                                     
  V. Asgeirsson          : NEB                                           
  Christoph Bannwarth    : sTDA-DFT, sTD-DFT, PBEh-3c, B97-3c, D3        
  Sebastian Ehlert       : rSCAN, r2SCAN, r2SCAN-3c, D4, dhf basis sets  
  Marvin Friede          : D4 for Fr, Ra, Ac-Lr                          
  Lars Goerigk           : TD-DFT with DH, B97 family of functionals     
  Stefan Grimme          : VdW corrections, initial TS optimization, DFT functionals, gCP, sTDA/sTD-DF 
  Waldemar Hujo          : DFT-NL                                        
  H. Jonsson             : NEB                                           
  Holger Kruse           : gCP                                           
  Marcel Mueller         : wB97X-3c, vDZP basis set                      
  Hagen Neugebauer       : wr2SCAN                                       
  Tobias Risthaus        : range-separated hybrid DFT                    
  Lukas Wittmann         : regularized MP2, r2SCAN double-hybrids, wr2SCAN        
                                                                         
We gratefully acknowledge several colleagues who have allowed us to      
interface, adapt or use parts of their codes:                            
  Ed Valeev, F. Pavosevic, A. Kumar             : LibInt (2-el integral package), F12 methods 
  Garnet Chan, S. Sharma, J. Yang, R. Olivares  : DMRG                   
  Ulf Ekstrom                                   : XCFun DFT Library      
  Mihaly Kallay                                 : mrcc  (arbitrary order and MRCC methods)
  Frank Weinhold                                : gennbo (NPA and NBO analysis)           
  Simon Mueller                                 : openCOSMO-RS                            
  Christopher J. Cramer and Donald G. Truhlar   : smd solvation model                     
  S Lehtola, MJT Oliveira, MAL Marques          : LibXC Library                           
  Liviu Ungur et al                             : ANISO software                          


 Your calculation uses the libint2 library for the computation of 2-el integrals
 For citations please refer to: http://libint.valeyev.net

 Your ORCA version has been built with support for libXC version: 6.2.2
 For citations please refer to: https://libxc.gitlab.io

 This ORCA versions uses:
   CBLAS   interface :  Fast vector & matrix operations
   LAPACKE interface :  Fast linear algebra routines
   SCALAPACK package :  Parallel linear algebra routines
   Shared memory     :  Shared parallel matrices
   BLAS/LAPACK       :  OpenBLAS 0.3.27  USE64BITINT DYNAMIC_ARCH NO_AFFINITY Zen SINGLE_THREADED
        Core in use  :  Zen
   Copyright (c) 2011-2014, The OpenBLAS Project


NOTE: MaxCore=6000 MB was set to SCF,MP2,MDCI,CIPSI,MRCI and CIS
      => If you want to overwrite this, your respective input block should be placed after the MaxCore statement
Your calculation utilizes the atom-pairwise dispersion correction
with the Becke-Johnson damping scheme (D3BJ)


Your calculation employs the composite approach B97-3c by Grimme and coworkers.
For the correct reference, please check the publication list of the Grimme group:
http://www.thch.uni-bonn.de/tc/index.php?section=publikationen&subsection=grimme#2017
   

XCFun DFT library Copyright 2009-2010 Ulf Ekstrom and contributors.
See http://admol.org/xcfun for more information.
This is free software; see the source code for copying conditions.
There is ABSOLUTELY NO WARRANTY; not even for MERCHANTABILITY or FITNESS FOR A PARTICULAR PURPOSE.
For details see the documentation.
Scientific users of this library should cite U. Ekstrom, L. Visscher, R. Bast, A. J. Thorvaldsen and K. Ruud;
J.Chem.Theor.Comp. 2010, DOI: 10.1021/ct100117s
XCFun Version 0.99 

================================================================================

----- Orbital basis set information -----
Your calculation utilizes the basis: def2-mTZVP
----- AuxJ basis set information -----
Your calculation utilizes the basis: def2-mTZVP/J
================================================================================
                                        WARNINGS
                       Please study these warnings very carefully!
================================================================================


WARNING: Geometry Optimization
  ===> : Switching off AutoStart
         For restart on a previous wavefunction, please use MOREAD

================================================================================
                                       INPUT FILE
================================================================================
NAME = m1_01_Vitamin_B1-GFN1_003-B97-3C-TZ.inp
|  1> %pal nprocs 16 end
|  2> %MaxCore 6000
|  3> # put your comments here
|  4> ! B97-3C  OPT  FREQ DEFGRID3 NOTRAH
|  5> %scf MaxIter 800 end
|  6> %output
|  7> Print [P_Hirshfeld] 1
|  8> end
|  9> %geom
| 10> MaxIter 3000
| 11>  TolE 1e-6 #TolE 5e-6 Energy change (a.u.)
| 12>  TolRMSG 3e-5 #TolRMSG 1e-4 RMS gradient (a.u.)
| 13>  TolMaxG 1e-4 #TolMaxG 3e-3 Max. element of gradient (a.u.)
| 14>  TolRMSD 2e-3 #TolRMSD 2e-3 RMS displacement (a.u.)
| 15>  TolMaxD 4e-3 #TolMaxD 4e-3 Max. displacement (a.u.)
| 16> end
| 17> * xyz 1 1
| 18>  S -4.29072782684873 2.05450662080504 -3.44595868112796
| 19>  O -2.86050675603601 1.95978463697673 -7.37797754632133
| 20>  N -5.50136685280100 3.79962149607493 -4.76562569399157
| 21>  N -5.57986535214638 8.41747781061546 -4.87901019854491
| 22>  N -5.60952149018889 7.46704596635200 -2.72568349477407
| 23>  N -6.08274185068858 7.25694156942028 -6.77925938857637
| 24>  C -4.26471972198716 3.72031481651302 -5.37562820056279
| 25>  C -6.53368161965079 4.77128376695873 -5.16116082077630
| 26>  C -3.46731934353551 2.79861496486590 -4.76337391571800
| 27>  C -2.09468333238697 2.36461429381716 -5.15766348518360
| 28>  C -6.16917751507723 6.13119913273884 -4.61031428036667
| 29>  C -5.66153795720422 2.99145032598360 -3.73530244248581
| 30>  C -3.93823874811697 4.55478450202214 -6.56602327800112
| 31>  C -2.16431284086106 1.34981094996329 -6.31304647609658
| 32>  C -5.96850018688664 7.26366562255499 -5.41603808474212
| 33>  C -5.97405001300156 6.30872652383838 -3.24658039054140
| 34>  C -5.41796400062353 8.48739792133427 -3.56575897000855
| 35>  C -5.00445299417964 9.79437686098697 -2.97992838355115
| 36>  H -7.48608073741676 4.41735869060372 -4.75638262420982
| 37>  H -6.59202685002407 4.76914646283564 -6.25114017787536
| 38>  H -1.58206595041253 1.90926744650857 -4.30872204244295
| 39>  H -1.52086598578063 3.23346717598100 -5.49038494793658
| 40>  H -6.57181398942583 2.94023227827991 -3.16083526319613
| 41>  H -4.51514431484737 4.21439582650152 -7.42714736979029
| 42>  H -4.16676645422251 5.60505796276282 -6.38726840218832
| 43>  H -2.88274119588119 4.45306372480150 -6.80820631881224
| 44>  H -2.68498526066743 0.44029514595364 -5.97435749577216
| 45>  H -1.13945161597358 1.08440028207250 -6.60865891473077
| 46>  H -6.10726049308881 5.47811500936337 -2.55693929246842
| 47>  H -6.75779056396363 6.64162329079340 -7.20000635563067
| 48>  H -6.05768507361990 8.18340917080944 -7.17850459206702
| 49>  H -2.69685346505292 1.48335709182873 -8.20276622054913
| 50>  H -4.62257328387845 10.45481221066624 -3.75544655496596
| 51>  H -5.86841070028498 10.26599214529585 -2.50841403930580
| 52>  H -4.24854766323741 9.63857030312373 -2.21150465669299
| 53> *
| 54> 
| 55> 
| 56> 
| 57> 
| 58>                          ****END OF INPUT****
================================================================================

                       *****************************
                       * Geometry Optimization Run *
                       *****************************

Geometry optimization settings:
Update method            Update   .... BFGS
Choice of coordinates    CoordSys .... (2022) Redundant Internals
Initial Hessian          InHess   .... Almloef's Model
Max. no of cycles        MaxIter  .... 3000

Convergence Tolerances:
Energy Change            TolE     ....  1.0000e-06 Eh
Max. Gradient            TolMAXG  ....  1.0000e-04 Eh/bohr
RMS Gradient             TolRMSG  ....  3.0000e-05 Eh/bohr
Max. Displacement        TolMAXD  ....  4.0000e-03 bohr
RMS Displacement         TolRMSD  ....  2.0000e-03 bohr
Strict Convergence                .... False

------------------------------------------------------------------------------
                        ORCA OPTIMIZATION COORDINATE SETUP
------------------------------------------------------------------------------

The optimization will be done in redundant internal coordinates (2022)
Making redundant internal coordinates   ...  (2022 redundants) done
Evaluating the initial hessian          ...  (Almloef) done
Evaluating the coordinates              ...  done
Calculating the B-matrix                .... done
Calculating the G-matrix                .... done
Diagonalizing the G-matrix              .... done
Small eigenvalue found = 4.057e-03
Small eigenvalue found = 6.298e-03
Small eigenvalue found = 1.095e-02
Small eigenvalue found = 1.629e-02
Small eigenvalue found = 2.964e-02
The first mode is                       ....   68
The number of degrees of freedom        ....   99

    -----------------------------------------------------------------
                    Redundant Internal Coordinates


    -----------------------------------------------------------------
         Definition                    Initial Value    Approx d2E/dq
    -----------------------------------------------------------------
      1. B(C   6,N   2)                  1.3812         0.578002   
      2. B(C   7,N   2)                  1.4718         0.414323   
      3. B(C   8,S   0)                  1.7226         0.496474   
      4. B(C   8,C   6)                  1.3639         0.687660   
      5. B(C   9,C   8)                  1.4926         0.428544   
      6. B(C  10,C   7)                  1.5118         0.399345   
      7. B(C  11,S   0)                  1.6854         0.569053   
      8. B(C  11,N   2)                  1.3192         0.725752   
      9. B(C  12,C   6)                  1.4900         0.432777   
     10. B(C  13,C   9)                  1.5393         0.360967   
     11. B(C  13,O   1)                  1.4110         0.518110   
     12. B(C  14,C  10)                  1.4043         0.592911   
     13. B(C  14,N   5)                  1.3680         0.606665   
     14. B(C  14,N   3)                  1.3307         0.695843   
     15. B(C  15,N   4)                  1.3213         0.720163   
     16. B(C  15,C  10)                  1.3890         0.627063   
     17. B(C  16,N   4)                  1.3355         0.683659   
     18. B(C  16,N   3)                  1.3250         0.710421   
     19. B(C  17,C  16)                  1.4908         0.431492   
     20. B(H  18,C   7)                  1.0937         0.355243   
     21. B(H  19,C   7)                  1.0915         0.358066   
     22. B(H  20,C   9)                  1.0912         0.358455   
     23. B(H  21,C   9)                  1.0931         0.356018   
     24. B(H  22,C  11)                  1.0776         0.376872   
     25. B(H  23,C  12)                  1.0910         0.358817   
     26. B(H  24,C  12)                  1.0896         0.360615   
     27. B(H  25,C  12)                  1.0877         0.363166   
     28. B(H  26,C  13)                  1.1014         0.345361   
     29. B(H  27,C  13)                  1.0992         0.348174   
     30. B(H  28,C  15)                  1.0878         0.363049   
     31. B(H  29,N   5)                  1.0057         0.439676   
     32. B(H  30,N   5)                  1.0091         0.434075   
     33. B(H  31,O   1)                  0.9665         0.507765   
     34. B(H  32,C  17)                  1.0879         0.362945   
     35. B(H  33,C  17)                  1.0914         0.358243   
     36. B(H  34,C  17)                  1.0891         0.361290   
     37. A(C   8,S   0,C  11)           90.9940         0.457609   
     38. A(C  13,O   1,H  31)          110.3316         0.357476   
     39. A(C   6,N   2,C  11)          114.7375         0.435188   
     40. A(C   7,N   2,C  11)          121.9487         0.410059   
     41. A(C   6,N   2,C   7)          123.1754         0.393937   
     42. A(C  14,N   3,C  16)          118.7783         0.448295   
     43. A(C  15,N   4,C  16)          117.4749         0.447966   
     44. A(C  14,N   5,H  29)          118.4231         0.358317   
     45. A(C  14,N   5,H  30)          112.8087         0.357536   
     46. A(H  29,N   5,H  30)          114.3857         0.304187   
     47. A(C   8,C   6,C  12)          127.5185         0.414646   
     48. A(N   2,C   6,C  12)          121.1236         0.399514   
     49. A(N   2,C   6,C   8)          111.3466         0.433826   
     50. A(C  10,C   7,H  19)          112.2397         0.327593   
     51. A(N   2,C   7,H  19)          107.7312         0.327610   
     52. A(C  10,C   7,H  18)          111.4807         0.327166   
     53. A(N   2,C   7,C  10)          109.0756         0.371783   
     54. A(H  18,C   7,H  19)          108.8076         0.289962   
     55. A(N   2,C   7,H  18)          107.3181         0.327183   
     56. A(S   0,C   8,C   6)          110.8405         0.448508   
     57. A(C   6,C   8,C   9)          127.9923         0.413922   
     58. A(S   0,C   8,C   9)          121.0646         0.412016   
     59. A(C   8,C   9,C  13)          110.3867         0.369819   
     60. A(C  13,C   9,H  20)          109.2732         0.322255   
     61. A(H  20,C   9,H  21)          108.7761         0.290111   
     62. A(C   8,C   9,H  21)          109.3923         0.331119   
     63. A(C   8,C   9,H  20)          110.3536         0.331494   
     64. A(C  13,C   9,H  21)          108.6197         0.321896   
     65. A(C  14,C  10,C  15)          116.1155         0.431471   
     66. A(C   7,C  10,C  15)          120.4348         0.402167   
     67. A(C   7,C  10,C  14)          123.4225         0.398222   
     68. A(S   0,C  11,N   2)          112.0788         0.461248   
     69. A(N   2,C  11,H  22)          123.2317         0.363045   
     70. A(S   0,C  11,H  22)          124.6869         0.368877   
     71. A(H  23,C  12,H  25)          107.9521         0.291064   
     72. A(H  24,C  12,H  25)          109.2807         0.291292   
     73. A(C   6,C  12,H  25)          109.7642         0.332753   
     74. A(H  23,C  12,H  24)          108.6221         0.290742   
     75. A(C   6,C  12,H  24)          111.2733         0.332364   
     76. A(C   6,C  12,H  23)          109.8774         0.332089   
     77. A(O   1,C  13,C   9)          107.6869         0.379733   
     78. A(H  26,C  13,H  27)          108.9105         0.287421   
     79. A(C   9,C  13,H  27)          108.5945         0.320724   
     80. A(O   1,C  13,H  27)          111.1900         0.338406   
     81. A(C   9,C  13,H  26)          109.5711         0.320299   
     82. A(O   1,C  13,H  26)          110.8447         0.337949   
     83. A(N   3,C  14,N   5)          115.5190         0.435683   
     84. A(N   5,C  14,C  10)          123.7702         0.426120   
     85. A(N   3,C  14,C  10)          120.6264         0.436749   
     86. A(C  10,C  15,H  28)          120.5078         0.354075   
     87. A(N   4,C  15,H  28)          116.9513         0.360261   
     88. A(N   4,C  15,C  10)          122.5368         0.443934   
     89. A(N   4,C  16,C  17)          117.5438         0.411323   
     90. A(N   3,C  16,C  17)          118.0104         0.414137   
     91. A(N   3,C  16,N   4)          124.4439         0.446861   
     92. A(H  33,C  17,H  34)          107.8437         0.290754   
     93. A(H  32,C  17,H  34)          110.2544         0.291350   
     94. A(C  16,C  17,H  34)          110.1429         0.332304   
     95. A(H  32,C  17,H  33)          108.8765         0.290963   
     96. A(C  16,C  17,H  33)          109.2107         0.331838   
     97. A(C  16,C  17,H  32)          110.4554         0.332555   
     98. D(C  12,C   6,N   2,C   7)     -5.1690         0.026784   
     99. D(C  12,C   6,N   2,C  11)    179.0364         0.026784   
    100. D(C   8,C   6,N   2,C  11)      0.1740         0.026784   
    101. D(C   8,C   6,N   2,C   7)    175.9685         0.026784   
    102. D(H  19,C   7,N   2,C   6)     45.3858         0.014641   
    103. D(C  10,C   7,N   2,C  11)     98.8098         0.014641   
    104. D(H  18,C   7,N   2,C  11)    -22.1001         0.014641   
    105. D(C  10,C   7,N   2,C   6)    -76.6882         0.014641   
    106. D(H  18,C   7,N   2,C   6)    162.4019         0.014641   
    107. D(C   9,C   8,C   6,N   2)    176.5059         0.033207   
    108. D(S   0,C   8,C   6,N   2)      0.2023         0.033207   
    109. D(S   0,C   8,C   6,C  12)   -178.5699         0.033207   
    110. D(C   9,C   8,C   6,C  12)     -2.2663         0.033207   
    111. D(C   6,C   8,S   0,C  11)     -0.3923         0.005151   
    112. D(C   9,C   8,S   0,C  11)   -176.9918         0.005151   
    113. D(H  21,C   9,C   8,S   0)   -144.2495         0.013565   
    114. D(H  20,C   9,C   8,C   6)    159.4233         0.013565   
    115. D(H  20,C   9,C   8,S   0)    -24.6102         0.013565   
    116. D(C  13,C   9,C   8,C   6)    -79.6830         0.013565   
    117. D(C  13,C   9,C   8,S   0)     96.2834         0.013565   
    118. D(C  15,C  10,C   7,H  18)     61.3099         0.011837   
    119. D(C  15,C  10,C   7,N   2)    -57.0211         0.011837   
    120. D(C  14,C  10,C   7,H  19)      1.6967         0.011837   
    121. D(C  14,C  10,C   7,H  18)   -120.6615         0.011837   
    122. D(C  14,C  10,C   7,N   2)    121.0075         0.011837   
    123. D(H  22,C  11,N   2,C   6)   -179.9249         0.043914   
    124. D(S   0,C  11,N   2,C   7)   -176.3307         0.043914   
    125. D(S   0,C  11,N   2,C   6)     -0.4789         0.043914   
    126. D(N   2,C  11,S   0,C   8)      0.4937         0.006366   
    127. D(H  22,C  11,N   2,C   7)      4.2234         0.043914   
    128. D(H  22,C  11,S   0,C   8)    179.9301         0.006366   
    129. D(H  25,C  12,C   6,N   2)    171.9911         0.013829   
    130. D(H  24,C  12,C   6,C   8)   -130.4372         0.013829   
    131. D(H  24,C  12,C   6,N   2)     50.8987         0.013829   
    132. D(H  23,C  12,C   6,C   8)    109.2214         0.013829   
    133. D(H  23,C  12,C   6,N   2)    -69.4427         0.013829   
    134. D(H  26,C  13,C   9,H  21)    176.4554         0.010450   
    135. D(H  26,C  13,C   9,H  20)     57.9250         0.010450   
    136. D(H  26,C  13,C   9,C   8)    -63.6110         0.010450   
    137. D(O   1,C  13,C   9,H  21)    -62.8967         0.010450   
    138. D(O   1,C  13,C   9,H  20)    178.5730         0.010450   
    139. D(O   1,C  13,C   9,C   8)     57.0369         0.010450   
    140. D(H  27,C  13,O   1,H  31)     43.7056         0.021276   
    141. D(H  26,C  13,O   1,H  31)    -77.5961         0.021276   
    142. D(C   9,C  13,O   1,H  31)    162.5599         0.021276   
    143. D(N   5,C  14,C  10,C   7)      0.0862         0.024204   
    144. D(N   3,C  14,C  10,C  15)      1.6884         0.024204   
    145. D(N   3,C  14,C  10,C   7)   -176.4187         0.024204   
    146. D(C  10,C  14,N   5,H  30)    170.3584         0.029704   
    147. D(C  10,C  14,N   5,H  29)     32.8907         0.029704   
    148. D(N   3,C  14,N   5,H  30)    -12.9741         0.029704   
    149. D(N   3,C  14,N   5,H  29)   -150.4419         0.029704   
    150. D(C  10,C  14,N   3,C  16)     -1.6681         0.036219   
    151. D(N   5,C  14,C  10,C  15)    178.1932         0.024204   
    152. D(N   5,C  14,N   3,C  16)   -178.4489         0.036219   
    153. D(H  28,C  15,C  10,C  14)   -179.8152         0.027247   
    154. D(H  28,C  15,C  10,C   7)     -1.6476         0.027247   
    155. D(N   4,C  15,C  10,C  14)     -0.5714         0.027247   
    156. D(N   4,C  15,C  10,C   7)    177.5962         0.027247   
    157. D(H  28,C  15,N   4,C  16)    178.7421         0.039057   
    158. D(C  10,C  15,N   4,C  16)     -0.5269         0.039057   
    159. D(C  17,C  16,N   3,C  14)   -178.9891         0.037904   
    160. D(N   4,C  16,N   3,C  14)      0.5010         0.037904   
    161. D(C  17,C  16,N   4,C  15)   -179.9004         0.034846   
    162. D(N   3,C  16,N   4,C  15)      0.6073         0.034846   
    163. D(H  34,C  17,C  16,N   3)   -137.8810         0.013748   
    164. D(H  33,C  17,C  16,N   4)    -75.6644         0.013748   
    165. D(H  33,C  17,C  16,N   3)    103.8613         0.013748   
    166. D(H  32,C  17,C  16,N   4)    164.6241         0.013748   
    167. D(H  32,C  17,C  16,N   3)    -15.8502         0.013748   
    -----------------------------------------------------------------

Number of atoms                         .... 35
Number of degrees of freedom            .... 167


         *************************************************************
         *                GEOMETRY OPTIMIZATION CYCLE   1            *
         *************************************************************
---------------------------------
CARTESIAN COORDINATES (ANGSTROEM)
---------------------------------
  S     -4.290728    2.054507   -3.445959
  O     -2.860507    1.959785   -7.377978
  N     -5.501367    3.799621   -4.765626
  N     -5.579865    8.417478   -4.879010
  N     -5.609521    7.467046   -2.725683
  N     -6.082742    7.256942   -6.779259
  C     -4.264720    3.720315   -5.375628
  C     -6.533682    4.771284   -5.161161
  C     -3.467319    2.798615   -4.763374
  C     -2.094683    2.364614   -5.157663
  C     -6.169178    6.131199   -4.610314
  C     -5.661538    2.991450   -3.735302
  C     -3.938239    4.554785   -6.566023
  C     -2.164313    1.349811   -6.313046
  C     -5.968500    7.263666   -5.416038
  C     -5.974050    6.308727   -3.246580
  C     -5.417964    8.487398   -3.565759
  C     -5.004453    9.794377   -2.979928
  H     -7.486081    4.417359   -4.756383
  H     -6.592027    4.769146   -6.251140
  H     -1.582066    1.909267   -4.308722
  H     -1.520866    3.233467   -5.490385
  H     -6.571814    2.940232   -3.160835
  H     -4.515144    4.214396   -7.427147
  H     -4.166766    5.605058   -6.387268
  H     -2.882741    4.453064   -6.808206
  H     -2.684985    0.440295   -5.974357
  H     -1.139452    1.084400   -6.608659
  H     -6.107260    5.478115   -2.556939
  H     -6.757791    6.641623   -7.200006
  H     -6.057685    8.183409   -7.178505
  H     -2.696853    1.483357   -8.202766
  H     -4.622573   10.454812   -3.755447
  H     -5.868411   10.265992   -2.508414
  H     -4.248548    9.638570   -2.211505

----------------------------
CARTESIAN COORDINATES (A.U.)
----------------------------
  NO LB      ZA    FRAG     MASS         X           Y           Z
   0 S    16.0000    0    32.060   -8.108301    3.882455   -6.511918
   1 O     8.0000    0    15.999   -5.405574    3.703456  -13.942357
   2 N     7.0000    0    14.007  -10.396077    7.180244   -9.005727
   3 N     7.0000    0    14.007  -10.544417   15.906728   -9.219993
   4 N     7.0000    0    14.007  -10.600459   14.110672   -5.150795
   5 N     7.0000    0    14.007  -11.494716   13.713632  -12.810944
   6 C     6.0000    0    12.011   -8.059152    7.030376  -10.158465
   7 C     6.0000    0    12.011  -12.346869    9.016420   -9.753180
   8 C     6.0000    0    12.011   -6.552284    5.288616   -9.001472
   9 C     6.0000    0    12.011   -3.958378    4.468473   -9.746571
  10 C     6.0000    0    12.011  -11.658056   11.586287   -8.712231
  11 C     6.0000    0    12.011  -10.698756    5.653022   -7.058699
  12 C     6.0000    0    12.011   -7.442193    8.607295  -12.407986
  13 C     6.0000    0    12.011   -4.089959    2.550773  -11.929929
  14 C     6.0000    0    12.011  -11.278831   13.726339  -10.234829
  15 C     6.0000    0    12.011  -11.289318   11.921765   -6.135148
  16 C     6.0000    0    12.011  -10.238468   16.038858   -6.738308
  17 C     6.0000    0    12.011   -9.457046   18.508690   -5.631249
  18 H     1.0000    0     1.008  -14.146642    8.347598   -8.988261
  19 H     1.0000    0     1.008  -12.457125    9.012381  -11.812943
  20 H     1.0000    0     1.008   -2.989671    3.607993   -8.142305
  21 H     1.0000    0     1.008   -2.874020    6.110367  -10.375324
  22 H     1.0000    0     1.008  -12.418929    5.556234   -5.973113
  23 H     1.0000    0     1.008   -8.532386    7.964054  -14.035274
  24 H     1.0000    0     1.008   -7.874047   10.592025  -12.070188
  25 H     1.0000    0     1.008   -5.447591    8.415071  -12.865645
  26 H     1.0000    0     1.008   -5.073887    0.832037  -11.289899
  27 H     1.0000    0     1.008   -2.153251    2.049220  -12.488555
  28 H     1.0000    0     1.008  -11.541050   10.352137   -4.831915
  29 H     1.0000    0     1.008  -12.770373   12.550849  -13.606040
  30 H     1.0000    0     1.008  -11.447366   15.464402  -13.565408
  31 H     1.0000    0     1.008   -5.096314    2.803139  -15.500982
  32 H     1.0000    0     1.008   -8.735398   19.756732   -7.096765
  33 H     1.0000    0     1.008  -11.089689   19.399914   -4.740216
  34 H     1.0000    0     1.008   -8.028592   18.214258   -4.179138

--------------------------------
INTERNAL COORDINATES (ANGSTROEM)
--------------------------------
 S      0   0   0     0.000000000000     0.00000000     0.00000000
 O      1   0   0     4.185125675754     0.00000000     0.00000000
 N      1   2   0     2.500518706966    71.66397175     0.00000000
 N      3   1   2     4.619915042727   135.95294831   249.46577784
 N      4   3   1     2.353936292742    64.79743848   315.98535184
 N      4   3   1     2.282690544977    61.05258370   152.38218264
 C      3   1   2     1.381191056153    76.08533289   329.99178733
 C      3   1   2     1.471818393361   160.41553285   159.76322486
 C      7   3   1     1.363903695058   111.34656923   359.86578646
 C      9   7   3     1.492632059873   127.99234983   176.50590489
 C      8   3   1     1.511841577487   109.07562401    91.96078358
 C      3   1   2     1.319227586676    38.65335124   150.43993147
 C      7   3   1     1.489956349267   121.12358793   178.72824828
 C      2   1   3     1.410968479699    57.94707927   163.64491950
 C      4   3   1     1.330683490032    31.58885566   173.06341206
 C      5   4   3     1.321332112252    89.81676478   342.56584873
 C      4   3   1     1.325039493283    91.50960307   324.28918674
 C     17   4   3     1.490765835795   118.01040047   164.29198936
 H      8   3   1     1.093696679893   107.31807773   331.05087589
 H      8   3   1     1.091541906149   107.73123452   214.03474136
 H     10   9   7     1.091246491339   110.35364736   159.42334864
 H     10   9   7     1.093103494591   109.39231889    39.78401324
 H     12   3   1     1.077607666699   123.23172466   180.55407872
 H     13   7   3     1.090971670029   109.87744007   290.55725820
 H     13   7   3     1.089611196905   111.27325501    50.89866327
 H     13   7   3     1.087692431044   109.76419296   171.99105533
 H     14   2   1     1.101375953925   110.84471359    72.13898936
 H     14   2   1     1.099167897449   111.19003126   193.44076877
 H     16   5   4     1.087780016426   116.95131450   179.02406723
 H      6   4   3     1.005651708889   143.82697173    67.31319289
 H      6   4   3     1.009141610980    81.78541714   187.93268642
 H      2   1   3     0.966458463960   150.55475670   237.66605245
 H     18  17   4     1.087858170186   110.45543631   344.14976083
 H     18  17   4     1.091407197686   109.21066521   103.86130016
 H     18  17   4     1.089102188419   110.14287452   222.11902286

---------------------------
INTERNAL COORDINATES (A.U.)
---------------------------
 S      0   0   0     0.000000000000     0.00000000     0.00000000
 O      1   0   0     7.908741363217     0.00000000     0.00000000
 N      1   2   0     4.725295548913    71.66397175     0.00000000
 N      3   1   2     8.730374192737   135.95294831   249.46577784
 N      4   3   1     4.448294929980    64.79743848   315.98535184
 N      4   3   1     4.313659978499    61.05258370   152.38218264
 C      3   1   2     2.610072834750    76.08533289   329.99178733
 C      3   1   2     2.781333682320   160.41553285   159.76322486
 C      7   3   1     2.577404456702   111.34656923   359.86578646
 C      9   7   3     2.820665811871   127.99234983   176.50590489
 C      8   3   1     2.856966539325   109.07562401    91.96078358
 C      3   1   2     2.492978847131    38.65335124   150.43993147
 C      7   3   1     2.815609451613   121.12358793   178.72824828
 C      2   1   3     2.666344010227    57.94707927   163.64491950
 C      4   3   1     2.514627367091    31.58885566   173.06341206
 C      5   4   3     2.496955824113    89.81676478   342.56584873
 C      4   3   1     2.503961758935    91.50960307   324.28918674
 C     17   4   3     2.817139159460   118.01040047   164.29198936
 H      8   3   1     2.066787198578   107.31807773   331.05087589
 H      8   3   1     2.062715266319   107.73123452   214.03474136
 H     10   9   7     2.062157013232   110.35364736   159.42334864
 H     10   9   7     2.065666240809   109.39231889    39.78401324
 H     12   3   1     2.036383369875   123.23172466   180.55407872
 H     13   7   3     2.061637676222   109.87744007   290.55725820
 H     13   7   3     2.059066754605   111.27325501    50.89866327
 H     13   7   3     2.055440812612   109.76419296   171.99105533
 H     14   2   1     2.081298923404   110.84471359    72.13898936
 H     14   2   1     2.077126301377   111.19003126   193.44076877
 H     16   5   4     2.055606324997   116.95131450   179.02406723
 H      6   4   3     1.900406315911   143.82697173    67.31319289
 H      6   4   3     1.907001275096    81.78541714   187.93268642
 H      2   1   3     1.826341816694   150.55475670   237.66605245
 H     18  17   4     2.055754014200   110.45543631   344.14976083
 H     18  17   4     2.062460704218   109.21066521   103.86130016
 H     18  17   4     2.058104867966   110.14287452   222.11902286

---------------------
BASIS SET INFORMATION
---------------------
There are 5 groups of distinct atoms

 Group   1 Type S   : 14s9p1d contracted to 5s4p1d pattern {73211/6111/1}
 Group   2 Type O   : 11s6p2d contracted to 5s3p2d pattern {62111/411/11}
 Group   3 Type N   : 11s6p1d contracted to 5s3p1d pattern {62111/411/1}
 Group   4 Type C   : 11s6p1d contracted to 5s3p1d pattern {62111/411/1}
 Group   5 Type H   : 5s contracted to 3s pattern {311}

Atom   0S    basis set group =>   1
Atom   1O    basis set group =>   2
Atom   2N    basis set group =>   3
Atom   3N    basis set group =>   3
Atom   4N    basis set group =>   3
Atom   5N    basis set group =>   3
Atom   6C    basis set group =>   4
Atom   7C    basis set group =>   4
Atom   8C    basis set group =>   4
Atom   9C    basis set group =>   4
Atom  10C    basis set group =>   4
Atom  11C    basis set group =>   4
Atom  12C    basis set group =>   4
Atom  13C    basis set group =>   4
Atom  14C    basis set group =>   4
Atom  15C    basis set group =>   4
Atom  16C    basis set group =>   4
Atom  17C    basis set group =>   4
Atom  18H    basis set group =>   5
Atom  19H    basis set group =>   5
Atom  20H    basis set group =>   5
Atom  21H    basis set group =>   5
Atom  22H    basis set group =>   5
Atom  23H    basis set group =>   5
Atom  24H    basis set group =>   5
Atom  25H    basis set group =>   5
Atom  26H    basis set group =>   5
Atom  27H    basis set group =>   5
Atom  28H    basis set group =>   5
Atom  29H    basis set group =>   5
Atom  30H    basis set group =>   5
Atom  31H    basis set group =>   5
Atom  32H    basis set group =>   5
Atom  33H    basis set group =>   5
Atom  34H    basis set group =>   5
---------------------------------
AUXILIARY/J BASIS SET INFORMATION
---------------------------------
There are 5 groups of distinct atoms

 Group   1 Type S   : 14s5p5d2f1g contracted to 8s4p3d1f1g pattern {71111111/2111/311/2/1}
 Group   2 Type O   : 8s3p3d contracted to 6s3p3d pattern {311111/111/111}
 Group   3 Type N   : 8s3p3d contracted to 6s3p3d pattern {311111/111/111}
 Group   4 Type C   : 8s3p3d contracted to 6s3p3d pattern {311111/111/111}
 Group   5 Type H   : 5s2p contracted to 3s1p pattern {311/2}

Atom   0S    basis set group =>   1
Atom   1O    basis set group =>   2
Atom   2N    basis set group =>   3
Atom   3N    basis set group =>   3
Atom   4N    basis set group =>   3
Atom   5N    basis set group =>   3
Atom   6C    basis set group =>   4
Atom   7C    basis set group =>   4
Atom   8C    basis set group =>   4
Atom   9C    basis set group =>   4
Atom  10C    basis set group =>   4
Atom  11C    basis set group =>   4
Atom  12C    basis set group =>   4
Atom  13C    basis set group =>   4
Atom  14C    basis set group =>   4
Atom  15C    basis set group =>   4
Atom  16C    basis set group =>   4
Atom  17C    basis set group =>   4
Atom  18H    basis set group =>   5
Atom  19H    basis set group =>   5
Atom  20H    basis set group =>   5
Atom  21H    basis set group =>   5
Atom  22H    basis set group =>   5
Atom  23H    basis set group =>   5
Atom  24H    basis set group =>   5
Atom  25H    basis set group =>   5
Atom  26H    basis set group =>   5
Atom  27H    basis set group =>   5
Atom  28H    basis set group =>   5
Atom  29H    basis set group =>   5
Atom  30H    basis set group =>   5
Atom  31H    basis set group =>   5
Atom  32H    basis set group =>   5
Atom  33H    basis set group =>   5
Atom  34H    basis set group =>   5


           ************************************************************
           *        Program running with 16 parallel MPI-processes    *
           *              working on a common directory               *
           ************************************************************
------------------------------------------------------------------------------
                             ORCA STARTUP CALCULATIONS
                           -- RI-GTO INTEGRALS CHOSEN --
------------------------------------------------------------------------------
------------------------------------------------------------------------------
                   ___                                                        
                  /   \      - P O W E R E D   B Y -                         
                 /     \                                                     
                 |  |  |   _    _      __       _____    __    __             
                 |  |  |  | |  | |    /  \     |  _  \  |  |  /  |          
                  \  \/   | |  | |   /    \    | | | |  |  | /  /          
                 / \  \   | |__| |  /  /\  \   | |_| |  |  |/  /          
                |  |  |   |  __  | /  /__\  \  |    /   |      \           
                |  |  |   | |  | | |   __   |  |    \   |  |\   \          
                \     /   | |  | | |  |  |  |  | |\  \  |  | \   \       
                 \___/    |_|  |_| |__|  |__|  |_| \__\ |__|  \__/        
                                                                              
                      - O R C A' S   B I G   F R I E N D -                    
                                      &                                       
                       - I N T E G R A L  F E E D E R -                       
                                                                              
 v1 FN, 2020, v2 2021, v3 2022-2024                                           
------------------------------------------------------------------------------


----------------------
SHARK INTEGRAL PACKAGE
----------------------

Number of atoms                             ...     35
Number of basis functions                   ...    401
Number of shells                            ...    215
Maximum angular momentum                    ...      2
Integral batch strategy                     ... SHARK/LIBINT Hybrid
RI-J (if used) integral strategy            ... SPLIT-RIJ (Revised 2003 algorithm where possible)
Printlevel                                  ...      1
Contraction scheme used                     ... SEGMENTED contraction
Prescreening option                         ... SCHWARTZ
   Thresh                                   ... 2.500e-11
   Tcut                                     ... 2.500e-12
   Tpresel                                  ... 2.500e-12 
Coulomb Range Separation                    ... NOT USED
Exchange Range Separation                   ... NOT USED
Multipole approximations                    ... NOT USED
Finite Nucleus Model                        ... NOT USED
CABS basis                                  ... NOT available
Auxiliary Coulomb fitting basis             ... AVAILABLE
   # of basis functions in Aux-J            ...    663
   # of shells in Aux-J                     ...    289
   Maximum angular momentum in Aux-J        ...      4
Auxiliary J/K fitting basis                 ... NOT available
Auxiliary Correlation fitting basis         ... NOT available
Auxiliary 'external' fitting basis          ... NOT available

Checking pre-screening integrals            ... done (  0.0 sec) Dimension = 215
Check shell pair data                       ... done (  0.0 sec)
Shell pair information
Shell pair cut-off parameter TPreSel        ...   2.5e-12
Total number of shell pairs                 ...     23220
Shell pairs after pre-screening             ...     17721
Total number of primitive shell pairs       ...     87201
Primitive shell pairs kept                  ...     42495
          la=0 lb=0:   7185 shell pairs
          la=1 lb=0:   6308 shell pairs
          la=1 lb=1:   1362 shell pairs
          la=2 lb=0:   1874 shell pairs
          la=2 lb=1:    855 shell pairs
          la=2 lb=2:    137 shell pairs

Calculating one electron integrals          ... done (  0.0 sec)
Calculating RI/J V-Matrix + Cholesky decomp.... done (  0.0 sec)
Calculating Nuclear repulsion               ... done (  0.0 sec) ENN=   1476.667478001692 Eh

Diagonalization of the overlap matrix:
Smallest eigenvalue                        ... 5.496e-05
Time for diagonalization                   ...    0.014 sec
Threshold for overlap eigenvalues          ... 1.000e-07
Number of eigenvalues below threshold      ... 0
Time for construction of square roots      ...    0.007 sec
Total time needed                          ...    0.023 sec

-------------------
DFT GRID GENERATION
-------------------

General Integration Accuracy     IntAcc      ... 4.959
Radial Grid Type                 RadialGrid  ... OptM3 with GC (2021)
Angular Grid (max. ang.)         AngularGrid ... 6 (Lebedev-590)
Angular grid pruning method      GridPruning ... 4 (adaptive)
Weight generation scheme         WeightScheme... mBecke (2022)
Basis function cutoff            BFCut       ... 1.0000e-11
Integration weight cutoff        WCut        ... 1.0000e-14
Partially contracted basis set               ... off
Rotationally invariant grid construction     ... off
Angular grids for H and He will be reduced by one unit
Diffuse basis detected: some atoms will have their outermost
                        angular grid increased by 1.

Total number of grid points                  ...   402832
Total number of batches                      ...     6313
Average number of points per batch           ...       63
Average number of grid points per atom       ...    11509
Initializing property integral containers    ... done (  0.0 sec)

SHARK setup successfully completed in   3.3 seconds

Maximum memory used throughout the entire STARTUP-calculation: 93.7 MB


           ************************************************************
           *        Program running with 16 parallel MPI-processes    *
           *              working on a common directory               *
           ************************************************************
-------------------------------------------------------------------------------
                                 ORCA GUESS
                   Start orbitals & Density for SCF / CASSCF
-------------------------------------------------------------------------------

------------
SCF SETTINGS
------------
Hamiltonian:
 Density Functional     Method          .... DFT(GTOs)
 Exchange Functional    Exchange        .... B973C
 Correlation Functional Correlation     .... B973C
 Gradients option       PostSCFGGA      .... off
 RI-approximation to the Coulomb term is turned on
   Number of AuxJ basis functions       .... 663


General Settings:
 Integral files         IntName         .... m1_01_Vitamin_B1-GFN1_003-B97-3C-TZ
 Hartree-Fock type      HFTyp           .... RHF
 Total Charge           Charge          ....    1
 Multiplicity           Mult            ....    1
 Number of Electrons    NEL             ....  140
 Basis Dimension        Dim             ....  401
 Nuclear Repulsion      ENuc            ....   1476.6674780017 Eh

Convergence Acceleration:
 AO-DIIS                CNVDIIS         .... on
   Start iteration      DIISMaxIt       ....    12
   Startup error        DIISStart       ....  0.200000
   # of expansion vecs  DIISMaxEq       ....     5
   Bias factor          DIISBfac        ....   1.050
   Max. coefficient     DIISMaxC        ....  10.000
 MO-DIIS                CNVKDIIS        .... off
 Trust-Rad. Augm. Hess. CNVTRAH         .... off
 SOSCF                  CNVSOSCF        .... on
   Start iteration      SOSCFMaxIt      ....   150
   Startup grad/error   SOSCFStart      ....  0.003300
   Hessian update       SOSCFHessUp     .... L-BFGS
 Level Shifting         CNVShift        .... on
   Level shift para.    LevelShift      ....    0.2500
   Turn off err/grad.   ShiftErr        ....    0.0010
 Zerner damping         CNVZerner       .... off
 Static damping         CNVDamp         .... on
   Fraction old density DampFac         ....    0.7000
   Max. Damping (<1)    DampMax         ....    0.9800
   Min. Damping (>=0)   DampMin         ....    0.0000
   Turn off err/grad.   DampErr         ....    0.1000

SCF Procedure:
 Maximum # iterations   MaxIter         ....   800
 SCF integral mode      SCFMode         .... Direct
   Integral package                     .... SHARK and LIBINT hybrid scheme
 Reset frequency        DirectResetFreq ....    20
 Integral Threshold     Thresh          ....  2.500e-11 Eh
 Primitive CutOff       TCut            ....  2.500e-12 Eh

Convergence Tolerance:
 Convergence Check Mode ConvCheckMode   .... Total+1el-Energy
 Convergence forced     ConvForced      .... 0
 Energy Change          TolE            ....  1.000e-08 Eh
 1-El. energy change                    ....  1.000e-05 Eh
 Orbital Gradient       TolG            ....  1.000e-05
 Orbital Rotation angle TolX            ....  1.000e-05
 DIIS Error             TolErr          ....  5.000e-07

--------------------------------
INITIAL GUESS: MINIMAL BASIS EHT
--------------------------------
The minimal basis has 111 functions
EHT matrix was diagonalized
Basis set overlap was calculated now projecting the orbitals
Using GuessMode=FMatrix for the initial guess
C*T matrix was formed
Effective Fockian was calculated
Effective Fockian was diagonalized
Initial density was built
                      ------------------
                      INITIAL GUESS DONE
                      ------------------
             **** ENERGY FILE WAS UPDATED (m1_01_Vitamin_B1-GFN1_003-B97-3C-TZ.en.tmp) ****
Finished Guess after   0.2 sec
Maximum memory used throughout the entire GUESS-calculation: 32.3 MB


           ************************************************************
           *        Program running with 16 parallel MPI-processes    *
           *              working on a common directory               *
           ************************************************************

-------------------------------------------------------------------------------------------
                                      ORCA LEAN-SCF
                              memory conserving SCF solver
-------------------------------------------------------------------------------------------

----------------------------------------D-I-I-S--------------------------------------------
Iteration    Energy (Eh)           Delta-E    RMSDP     MaxDP     DIISErr   Damp  Time(sec)
-------------------------------------------------------------------------------------------
               ***  Starting incremental Fock matrix formation  ***
    1    -1156.3796851138479269     0.00e+00  4.69e-03  1.46e-01  8.24e-01  0.700   0.6
Warning: op=0 Small HOMO/LUMO gap (  -0.013) - skipping pre-diagonalization
         Will do a full diagonalization
    2    -1157.3403502961407412    -9.61e-01  4.42e-03  2.51e-01  5.62e-01  0.700   0.7
    3    -1157.8740012991054300    -5.34e-01  2.43e-03  8.99e-02  3.81e-01  0.700   0.6
    4    -1158.2359550763169409    -3.62e-01  1.57e-03  5.44e-02  2.57e-01  0.700   0.6
                               ***Turning on AO-DIIS***
    5    -1158.4961261235528127    -2.60e-01  1.25e-03  4.78e-02  1.73e-01  0.700   0.6
    6    -1158.6781690875870936    -1.82e-01  9.03e-04  3.93e-02  1.21e-01  0.700   0.6
    7    -1158.8061063830766670    -1.28e-01  6.70e-04  2.86e-02  8.50e-02  0.700   0.6
    8    -1158.8960701668568163    -9.00e-02  1.70e-03  7.73e-02  6.01e-02  0.000   0.6
    9    -1159.1060231777889840    -2.10e-01  2.29e-04  1.28e-02  7.22e-03  0.000   0.6
   10    -1159.1064528595018146    -4.30e-04  1.17e-04  8.08e-03  4.84e-03  0.000   0.6
                              *** Initializing SOSCF ***
---------------------------------------S-O-S-C-F--------------------------------------
Iteration    Energy (Eh)           Delta-E    RMSDP     MaxDP     MaxGrad    Time(sec)
--------------------------------------------------------------------------------------
   11    -1159.1066567985551501    -2.04e-04  8.65e-05  6.13e-03  1.03e-03     0.6
               *** Restarting incremental Fock matrix formation ***
   12    -1159.1067222568829038    -6.55e-05  1.87e-04  1.41e-02  1.68e-03     0.6
   13    -1159.1067909921073351    -6.87e-05  1.09e-04  5.77e-03  3.96e-04     0.6
   14    -1159.1067736827005774     1.73e-05  5.70e-05  2.48e-03  6.83e-04     0.6
   15    -1159.1067998074242951    -2.61e-05  1.26e-05  6.63e-04  8.28e-05     0.6
   16    -1159.1067989347318417     8.73e-07  8.87e-06  5.06e-04  1.51e-04     0.6
   17    -1159.1068000566926912    -1.12e-06  4.74e-06  2.53e-04  2.78e-05     0.6
   18    -1159.1067999538738604     1.03e-07  3.36e-06  2.45e-04  6.45e-05     0.6
   19    -1159.1068000767352260    -1.23e-07  1.76e-06  1.03e-04  2.30e-06     0.6
                  *** Gradient check signals convergence ***

               *****************************************************
               *                     SUCCESS                       *
               *           SCF CONVERGED AFTER  19 CYCLES          *
               *****************************************************

             **** ENERGY FILE WAS UPDATED (m1_01_Vitamin_B1-GFN1_003-B97-3C-TZ.en.tmp) ****

----------------
TOTAL SCF ENERGY
----------------

Total Energy       :      -1159.10680007673523 Eh          -31540.89954 eV

Components:
Nuclear Repulsion  :       1476.66747800169173 Eh           40182.16490 eV
Electronic Energy  :      -2635.77427807842696 Eh          -71723.06444 eV
One Electron Energy:      -4498.25026110210274 Eh         -122403.61248 eV
Two Electron Energy:       1862.47598302367578 Eh           50680.54805 eV

Virial components:
Potential Energy   :      -2314.74068336033997 Eh          -62987.29621 eV
Kinetic Energy     :       1155.63388328360452 Eh           31446.39667 eV
Virial Ratio       :          2.00300520505964

DFT components:
N(Alpha)           :       69.999986103131 electrons
N(Beta)            :       69.999986103131 electrons
N(Total)           :      139.999972206261 electrons
E(XC)              :     -132.605088913642 Eh       

---------------
SCF CONVERGENCE
---------------

  Last Energy change         ...    1.2286e-07  Tolerance :   1.0000e-08
  Last MAX-Density change    ...    1.0271e-04  Tolerance :   1.0000e-07
  Last RMS-Density change    ...    1.7571e-06  Tolerance :   5.0000e-09
  Last DIIS Error            ...    1.0326e-03  Tolerance :   5.0000e-07
  Last Orbital Gradient      ...    2.2956e-06  Tolerance :   1.0000e-05
  Last Orbital Rotation      ...    1.1548e-05  Tolerance :   1.0000e-05


----------------
ORBITAL ENERGIES
----------------

  NO   OCC          E(Eh)            E(eV) 
   0   2.0000     -88.241428     -2401.1713 
   1   2.0000     -18.871370      -513.5161 
   2   2.0000     -14.242528      -387.5589 
   3   2.0000     -14.126025      -384.3887 
   4   2.0000     -14.087713      -383.3462 
   5   2.0000     -14.082384      -383.2012 
   6   2.0000     -10.137935      -275.8672 
   7   2.0000     -10.104537      -274.9584 
   8   2.0000     -10.103215      -274.9225 
   9   2.0000     -10.094490      -274.6850 
  10   2.0000     -10.091097      -274.5927 
  11   2.0000     -10.070646      -274.0362 
  12   2.0000     -10.065057      -273.8841 
  13   2.0000     -10.053362      -273.5659 
  14   2.0000     -10.047244      -273.3994 
  15   2.0000     -10.033959      -273.0379 
  16   2.0000     -10.029563      -272.9183 
  17   2.0000      -9.970503      -271.3112 
  18   2.0000      -7.932069      -215.8426 
  19   2.0000      -5.962166      -162.2388 
  20   2.0000      -5.956586      -162.0869 
  21   2.0000      -5.954674      -162.0349 
  22   2.0000      -1.116830       -30.3905 
  23   2.0000      -1.071254       -29.1503 
  24   2.0000      -1.032347       -28.0916 
  25   2.0000      -0.976596       -26.5745 
  26   2.0000      -0.953067       -25.9343 
  27   2.0000      -0.909450       -24.7474 
  28   2.0000      -0.895620       -24.3711 
  29   2.0000      -0.869891       -23.6709 
  30   2.0000      -0.836308       -22.7571 
  31   2.0000      -0.807730       -21.9795 
  32   2.0000      -0.782081       -21.2815 
  33   2.0000      -0.752714       -20.4824 
  34   2.0000      -0.736094       -20.0301 
  35   2.0000      -0.711736       -19.3673 
  36   2.0000      -0.695995       -18.9390 
  37   2.0000      -0.678845       -18.4723 
  38   2.0000      -0.666579       -18.1385 
  39   2.0000      -0.635827       -17.3017 
  40   2.0000      -0.624999       -17.0071 
  41   2.0000      -0.606073       -16.4921 
  42   2.0000      -0.603796       -16.4301 
  43   2.0000      -0.584163       -15.8959 
  44   2.0000      -0.575292       -15.6545 
  45   2.0000      -0.560408       -15.2495 
  46   2.0000      -0.549489       -14.9524 
  47   2.0000      -0.546705       -14.8766 
  48   2.0000      -0.527747       -14.3607 
  49   2.0000      -0.526518       -14.3273 
  50   2.0000      -0.512364       -13.9421 
  51   2.0000      -0.508552       -13.8384 
  52   2.0000      -0.505347       -13.7512 
  53   2.0000      -0.499368       -13.5885 
  54   2.0000      -0.497169       -13.5287 
  55   2.0000      -0.495375       -13.4798 
  56   2.0000      -0.483074       -13.1451 
  57   2.0000      -0.465883       -12.6773 
  58   2.0000      -0.460198       -12.5226 
  59   2.0000      -0.453461       -12.3393 
  60   2.0000      -0.433964       -11.8088 
  61   2.0000      -0.432765       -11.7761 
  62   2.0000      -0.420281       -11.4364 
  63   2.0000      -0.418897       -11.3988 
  64   2.0000      -0.378343       -10.2952 
  65   2.0000      -0.367100        -9.9893 
  66   2.0000      -0.360825        -9.8186 
  67   2.0000      -0.354750        -9.6532 
  68   2.0000      -0.328523        -8.9396 
  69   2.0000      -0.311743        -8.4830 
  70   0.0000      -0.235128        -6.3982 
  71   0.0000      -0.176232        -4.7955 
  72   0.0000      -0.170896        -4.6503 
  73   0.0000      -0.166241        -4.5237 
  74   0.0000      -0.153873        -4.1871 
  75   0.0000      -0.114867        -3.1257 
  76   0.0000      -0.106259        -2.8914 
  77   0.0000      -0.095227        -2.5913 
  78   0.0000      -0.083100        -2.2613 
  79   0.0000      -0.071847        -1.9551 
  80   0.0000      -0.069786        -1.8990 
*Only the first 10 virtual orbitals were printed.

                    ********************************
                    * MULLIKEN POPULATION ANALYSIS *
                    ********************************

-----------------------
MULLIKEN ATOMIC CHARGES
-----------------------
   0 S :    0.288448
   1 O :   -0.539813
   2 N :    0.117529
   3 N :   -0.149723
   4 N :   -0.084474
   5 N :   -0.618580
   6 C :   -0.076809
   7 C :   -0.655638
   8 C :    0.033927
   9 C :   -0.410177
  10 C :    0.141646
  11 C :   -0.148460
  12 C :   -0.504361
  13 C :   -0.111661
  14 C :    0.154928
  15 C :   -0.129112
  16 C :    0.102346
  17 C :   -0.549703
  18 H :    0.277954
  19 H :    0.242619
  20 H :    0.213796
  21 H :    0.242503
  22 H :    0.274576
  23 H :    0.196374
  24 H :    0.230270
  25 H :    0.209725
  26 H :    0.155422
  27 H :    0.198201
  28 H :    0.153167
  29 H :    0.341443
  30 H :    0.366622
  31 H :    0.443703
  32 H :    0.197679
  33 H :    0.202359
  34 H :    0.193276
Sum of atomic charges:    1.0000000

--------------------------------
MULLIKEN REDUCED ORBITAL CHARGES
--------------------------------
  0 S s       :     5.885867  s :     5.885867
      pz      :     3.329892  p :     9.704533
      px      :     2.990260
      py      :     3.384381
      dz2     :     0.025592  d :     0.121152
      dxz     :     0.024325
      dyz     :     0.018153
      dx2y2   :     0.017156
      dxy     :     0.035926

  1 O s       :     3.812027  s :     3.812027
      pz      :     1.268391  p :     4.710353
      px      :     1.765605
      py      :     1.676358
      dz2     :    -0.002540  d :     0.017433
      dxz     :     0.005384
      dyz     :     0.009425
      dx2y2   :     0.000007
      dxy     :     0.005157

  2 N s       :     3.270552  s :     3.270552
      pz      :     1.192776  p :     3.552534
      px      :     1.115565
      py      :     1.244193
      dz2     :     0.013629  d :     0.059385
      dxz     :     0.011380
      dyz     :     0.009429
      dx2y2   :     0.012666
      dxy     :     0.012282

  3 N s       :     3.476442  s :     3.476442
      pz      :     1.178371  p :     3.628174
      px      :     1.182456
      py      :     1.267347
      dz2     :     0.014045  d :     0.045107
      dxz     :     0.006575
      dyz     :     0.009918
      dx2y2   :     0.007398
      dxy     :     0.007171

  4 N s       :     3.488703  s :     3.488703
      pz      :     1.433666  p :     3.550141
      px      :     1.149328
      py      :     0.967146
      dz2     :     0.007755  d :     0.045630
      dxz     :     0.007188
      dyz     :     0.018164
      dx2y2   :     0.006374
      dxy     :     0.006149

  5 N s       :     3.461184  s :     3.461184
      pz      :     1.204759  p :     4.122739
      px      :     1.574484
      py      :     1.343497
      dz2     :     0.010217  d :     0.034657
      dxz     :     0.006226
      dyz     :     0.008108
      dx2y2   :     0.005158
      dxy     :     0.004948

  6 C s       :     3.174322  s :     3.174322
      pz      :     1.021116  p :     2.842566
      px      :     0.914392
      py      :     0.907059
      dz2     :     0.010865  d :     0.059921
      dxz     :     0.015939
      dyz     :     0.008885
      dx2y2   :     0.014378
      dxy     :     0.009854

  7 C s       :     3.459197  s :     3.459197
      pz      :     1.226647  p :     3.141905
      px      :     0.982224
      py      :     0.933034
      dz2     :     0.014043  d :     0.054536
      dxz     :     0.006038
      dyz     :     0.006998
      dx2y2   :     0.010730
      dxy     :     0.016727

  8 C s       :     2.993213  s :     2.993213
      pz      :     0.984037  p :     2.926498
      px      :     0.945568
      py      :     0.996894
      dz2     :     0.007992  d :     0.046362
      dxz     :     0.011693
      dyz     :     0.006292
      dx2y2   :     0.008654
      dxy     :     0.011730

  9 C s       :     3.220881  s :     3.220881
      pz      :     1.080595  p :     3.145432
      px      :     0.934856
      py      :     1.129981
      dz2     :     0.006992  d :     0.043864
      dxz     :     0.008579
      dyz     :     0.010163
      dx2y2   :     0.007860
      dxy     :     0.010270

 10 C s       :     3.033999  s :     3.033999
      pz      :     0.879992  p :     2.780080
      px      :     1.105116
      py      :     0.794972
      dz2     :     0.011825  d :     0.044275
      dxz     :     0.005413
      dyz     :     0.015533
      dx2y2   :     0.006326
      dxy     :     0.005177

 11 C s       :     3.187964  s :     3.187964
      pz      :     0.947988  p :     2.908104
      px      :     1.008708
      py      :     0.951407
      dz2     :     0.011525  d :     0.052392
      dxz     :     0.012125
      dyz     :     0.009329
      dx2y2   :     0.011266
      dxy     :     0.008147

 12 C s       :     3.229373  s :     3.229373
      pz      :     0.985489  p :     3.237603
      px      :     1.161865
      py      :     1.090249
      dz2     :     0.008333  d :     0.037385
      dxz     :     0.006927
      dyz     :     0.008170
      dx2y2   :     0.010662
      dxy     :     0.003292

 13 C s       :     3.223634  s :     3.223634
      pz      :     0.799841  p :     2.823165
      px      :     1.054703
      py      :     0.968620
      dz2     :     0.012657  d :     0.064862
      dxz     :     0.012155
      dyz     :     0.017057
      dx2y2   :     0.012885
      dxy     :     0.010107

 14 C s       :     3.045480  s :     3.045480
      pz      :     0.856425  p :     2.716129
      px      :     0.911802
      py      :     0.947902
      dz2     :     0.023563  d :     0.083463
      dxz     :     0.016185
      dyz     :     0.023202
      dx2y2   :     0.010258
      dxy     :     0.010255

 15 C s       :     3.206710  s :     3.206710
      pz      :     0.955841  p :     2.862077
      px      :     0.905783
      py      :     1.000453
      dz2     :     0.013918  d :     0.060325
      dxz     :     0.008215
      dyz     :     0.022008
      dx2y2   :     0.009198
      dxy     :     0.006984

 16 C s       :     3.152174  s :     3.152174
      pz      :     0.908717  p :     2.662353
      px      :     0.835873
      py      :     0.917764
      dz2     :     0.024131  d :     0.083127
      dxz     :     0.013534
      dyz     :     0.027690
      dx2y2   :     0.008750
      dxy     :     0.009021

 17 C s       :     3.305630  s :     3.305630
      pz      :     1.118270  p :     3.208162
      px      :     1.114125
      py      :     0.975767
      dz2     :     0.003024  d :     0.035912
      dxz     :     0.010039
      dyz     :     0.009438
      dx2y2   :     0.006722
      dxy     :     0.006688

 18 H s       :     0.722046  s :     0.722046

 19 H s       :     0.757381  s :     0.757381

 20 H s       :     0.786204  s :     0.786204

 21 H s       :     0.757497  s :     0.757497

 22 H s       :     0.725424  s :     0.725424

 23 H s       :     0.803626  s :     0.803626

 24 H s       :     0.769730  s :     0.769730

 25 H s       :     0.790275  s :     0.790275

 26 H s       :     0.844578  s :     0.844578

 27 H s       :     0.801799  s :     0.801799

 28 H s       :     0.846833  s :     0.846833

 29 H s       :     0.658557  s :     0.658557

 30 H s       :     0.633378  s :     0.633378

 31 H s       :     0.556297  s :     0.556297

 32 H s       :     0.802321  s :     0.802321

 33 H s       :     0.797641  s :     0.797641

 34 H s       :     0.806724  s :     0.806724



                     *******************************
                     * LOEWDIN POPULATION ANALYSIS *
                     *******************************

----------------------
LOEWDIN ATOMIC CHARGES
----------------------
   0 S :    0.736795
   1 O :   -0.771229
   2 N :   -0.038823
   3 N :   -0.186684
   4 N :   -0.184552
   5 N :   -0.421941
   6 C :    0.004577
   7 C :   -0.152193
   8 C :   -0.236600
   9 C :   -0.257995
  10 C :   -0.163842
  11 C :   -0.264130
  12 C :   -0.392001
  13 C :    0.038260
  14 C :    0.088913
  15 C :   -0.027568
  16 C :    0.084407
  17 C :   -0.409842
  18 H :    0.191547
  19 H :    0.183615
  20 H :    0.185407
  21 H :    0.193937
  22 H :    0.204083
  23 H :    0.190616
  24 H :    0.191230
  25 H :    0.197774
  26 H :    0.169084
  27 H :    0.181732
  28 H :    0.161904
  29 H :    0.283176
  30 H :    0.300798
  31 H :    0.374999
  32 H :    0.175055
  33 H :    0.188519
  34 H :    0.180973

-------------------------------
LOEWDIN REDUCED ORBITAL CHARGES
-------------------------------
  0 S s       :     5.349337  s :     5.349337
      pz      :     3.337807  p :     9.775793
      px      :     3.036214
      py      :     3.401772
      dz2     :     0.028374  d :     0.138075
      dxz     :     0.027966
      dyz     :     0.019862
      dx2y2   :     0.019318
      dxy     :     0.042555

  1 O s       :     3.550006  s :     3.550006
      pz      :     1.346371  p :     4.865557
      px      :     1.800003
      py      :     1.719183
      dz2     :     0.088278  d :     0.355666
      dxz     :     0.072760
      dyz     :     0.096937
      dx2y2   :     0.050262
      dxy     :     0.047429

  2 N s       :     3.077259  s :     3.077259
      pz      :     1.293353  p :     3.844010
      px      :     1.261131
      py      :     1.289527
      dz2     :     0.026284  d :     0.117554
      dxz     :     0.023082
      dyz     :     0.020001
      dx2y2   :     0.023926
      dxy     :     0.024261

  3 N s       :     3.211825  s :     3.211825
      pz      :     1.302792  p :     3.891756
      px      :     1.203530
      py      :     1.385434
      dz2     :     0.028150  d :     0.083103
      dxz     :     0.011406
      dyz     :     0.019517
      dx2y2   :     0.012844
      dxy     :     0.011186

  4 N s       :     3.223125  s :     3.223125
      pz      :     1.535439  p :     3.876459
      px      :     1.169938
      py      :     1.171081
      dz2     :     0.012787  d :     0.084968
      dxz     :     0.008939
      dyz     :     0.034606
      dx2y2   :     0.015443
      dxy     :     0.013193

  5 N s       :     3.204203  s :     3.204203
      pz      :     1.260109  p :     4.161381
      px      :     1.569710
      py      :     1.331562
      dz2     :     0.018660  d :     0.056357
      dxz     :     0.010128
      dyz     :     0.014884
      dx2y2   :     0.006418
      dxy     :     0.006266

  6 C s       :     2.841971  s :     2.841971
      pz      :     1.038812  p :     3.026879
      px      :     0.944060
      py      :     1.044006
      dz2     :     0.020601  d :     0.126574
      dxz     :     0.034875
      dyz     :     0.018345
      dx2y2   :     0.031429
      dxy     :     0.021324

  7 C s       :     2.912628  s :     2.912628
      pz      :     1.128529  p :     3.139816
      px      :     1.013256
      py      :     0.998030
      dz2     :     0.024044  d :     0.099749
      dxz     :     0.010253
      dyz     :     0.012706
      dx2y2   :     0.019641
      dxy     :     0.033105

  8 C s       :     2.926741  s :     2.926741
      pz      :     1.051645  p :     3.213484
      px      :     1.095000
      py      :     1.066839
      dz2     :     0.016807  d :     0.096376
      dxz     :     0.024341
      dyz     :     0.014576
      dx2y2   :     0.016739
      dxy     :     0.023913

  9 C s       :     2.924366  s :     2.924366
      pz      :     1.091761  p :     3.255996
      px      :     1.050553
      py      :     1.113682
      dz2     :     0.011590  d :     0.077633
      dxz     :     0.015227
      dyz     :     0.017957
      dx2y2   :     0.015181
      dxy     :     0.017678

 10 C s       :     2.858627  s :     2.858627
      pz      :     1.095875  p :     3.211071
      px      :     1.097067
      py      :     1.018130
      dz2     :     0.026661  d :     0.094144
      dxz     :     0.010459
      dyz     :     0.033789
      dx2y2   :     0.013489
      dxy     :     0.009746

 11 C s       :     2.962994  s :     2.962994
      pz      :     1.029684  p :     3.192098
      px      :     1.122243
      py      :     1.040170
      dz2     :     0.023833  d :     0.109038
      dxz     :     0.022446
      dyz     :     0.022582
      dx2y2   :     0.020886
      dxy     :     0.019291

 12 C s       :     2.965729  s :     2.965729
      pz      :     1.070144  p :     3.365237
      px      :     1.170339
      py      :     1.124753
      dz2     :     0.014449  d :     0.061035
      dxz     :     0.011094
      dyz     :     0.014445
      dx2y2   :     0.016283
      dxy     :     0.004764

 13 C s       :     2.871246  s :     2.871246
      pz      :     0.906669  p :     2.961909
      px      :     1.037111
      py      :     1.018130
      dz2     :     0.024954  d :     0.128584
      dxz     :     0.024498
      dyz     :     0.037804
      dx2y2   :     0.022637
      dxy     :     0.018691

 14 C s       :     2.811380  s :     2.811380
      pz      :     0.974636  p :     2.922204
      px      :     0.902958
      py      :     1.044610
      dz2     :     0.055134  d :     0.177502
      dxz     :     0.030040
      dyz     :     0.049218
      dx2y2   :     0.022943
      dxy     :     0.020167

 15 C s       :     2.883146  s :     2.883146
      pz      :     1.065903  p :     3.021519
      px      :     0.911149
      py      :     1.044467
      dz2     :     0.030550  d :     0.122903
      dxz     :     0.016343
      dyz     :     0.046042
      dx2y2   :     0.017169
      dxy     :     0.012799

 16 C s       :     2.830520  s :     2.830520
      pz      :     1.023888  p :     2.908298
      px      :     0.850296
      py      :     1.034114
      dz2     :     0.056980  d :     0.176776
      dxz     :     0.024689
      dyz     :     0.062292
      dx2y2   :     0.016944
      dxy     :     0.015871

 17 C s       :     2.983497  s :     2.983497
      pz      :     1.146408  p :     3.368281
      px      :     1.147281
      py      :     1.074592
      dz2     :     0.004576  d :     0.058065
      dxz     :     0.015037
      dyz     :     0.015700
      dx2y2   :     0.011434
      dxy     :     0.011317

 18 H s       :     0.808453  s :     0.808453

 19 H s       :     0.816385  s :     0.816385

 20 H s       :     0.814593  s :     0.814593

 21 H s       :     0.806063  s :     0.806063

 22 H s       :     0.795917  s :     0.795917

 23 H s       :     0.809384  s :     0.809384

 24 H s       :     0.808770  s :     0.808770

 25 H s       :     0.802226  s :     0.802226

 26 H s       :     0.830916  s :     0.830916

 27 H s       :     0.818268  s :     0.818268

 28 H s       :     0.838096  s :     0.838096

 29 H s       :     0.716824  s :     0.716824

 30 H s       :     0.699202  s :     0.699202

 31 H s       :     0.625001  s :     0.625001

 32 H s       :     0.824945  s :     0.824945

 33 H s       :     0.811481  s :     0.811481

 34 H s       :     0.819027  s :     0.819027



                      *****************************
                      * MAYER POPULATION ANALYSIS *
                      *****************************

  NA   - Mulliken gross atomic population
  ZA   - Total nuclear charge
  QA   - Mulliken gross atomic charge
  VA   - Mayer's total valence
  BVA  - Mayer's bonded valence
  FA   - Mayer's free valence

  ATOM       NA         ZA         QA         VA         BVA        FA
  0 S     15.7116    16.0000     0.2884     2.6789     2.6789     0.0000
  1 O      8.5398     8.0000    -0.5398     1.7611     1.7611    -0.0000
  2 N      6.8825     7.0000     0.1175     3.3021     3.3021    -0.0000
  3 N      7.1497     7.0000    -0.1497     3.1717     3.1717     0.0000
  4 N      7.0845     7.0000    -0.0845     3.1100     3.1100     0.0000
  5 N      7.6186     7.0000    -0.6186     2.9780     2.9780     0.0000
  6 C      6.0768     6.0000    -0.0768     4.2752     4.2752     0.0000
  7 C      6.6556     6.0000    -0.6556     3.6172     3.6172    -0.0000
  8 C      5.9661     6.0000     0.0339     3.5134     3.5134    -0.0000
  9 C      6.4102     6.0000    -0.4102     3.7895     3.7895     0.0000
 10 C      5.8584     6.0000     0.1416     3.2683     3.2683    -0.0000
 11 C      6.1485     6.0000    -0.1485     3.8482     3.8482     0.0000
 12 C      6.5044     6.0000    -0.5044     3.8447     3.8447     0.0000
 13 C      6.1117     6.0000    -0.1117     3.7093     3.7093    -0.0000
 14 C      5.8451     6.0000     0.1549     4.0663     4.0663     0.0000
 15 C      6.1291     6.0000    -0.1291     4.0333     4.0333     0.0000
 16 C      5.8977     6.0000     0.1023     3.9592     3.9592     0.0000
 17 C      6.5497     6.0000    -0.5497     3.7120     3.7120    -0.0000
 18 H      0.7220     1.0000     0.2780     0.8906     0.8906     0.0000
 19 H      0.7574     1.0000     0.2426     0.9247     0.9247     0.0000
 20 H      0.7862     1.0000     0.2138     0.9459     0.9459     0.0000
 21 H      0.7575     1.0000     0.2425     0.9187     0.9187     0.0000
 22 H      0.7254     1.0000     0.2746     0.8968     0.8968     0.0000
 23 H      0.8036     1.0000     0.1964     0.9569     0.9569     0.0000
 24 H      0.7697     1.0000     0.2303     0.8981     0.8981     0.0000
 25 H      0.7903     1.0000     0.2097     0.9582     0.9582    -0.0000
 26 H      0.8446     1.0000     0.1554     0.9453     0.9453     0.0000
 27 H      0.8018     1.0000     0.1982     0.9367     0.9367     0.0000
 28 H      0.8468     1.0000     0.1532     0.9487     0.9487     0.0000
 29 H      0.6586     1.0000     0.3414     0.8590     0.8590     0.0000
 30 H      0.6334     1.0000     0.3666     0.8632     0.8632    -0.0000
 31 H      0.5563     1.0000     0.4437     0.7704     0.7704     0.0000
 32 H      0.8023     1.0000     0.1977     0.9556     0.9556     0.0000
 33 H      0.7976     1.0000     0.2024     0.9454     0.9454    -0.0000
 34 H      0.8067     1.0000     0.1933     0.9483     0.9483    -0.0000

  Mayer bond orders larger than 0.100000
B(  0-S ,  8-C ) :   1.1388 B(  0-S , 11-C ) :   1.3335 B(  1-O , 13-C ) :   0.9745 
B(  1-O , 31-H ) :   0.7541 B(  2-N ,  6-C ) :   1.2371 B(  2-N ,  7-C ) :   0.7743 
B(  2-N , 11-C ) :   1.3737 B(  3-N , 14-C ) :   1.5105 B(  3-N , 16-C ) :   1.5580 
B(  4-N , 15-C ) :   1.6309 B(  4-N , 16-C ) :   1.4246 B(  5-N , 14-C ) :   1.2100 
B(  5-N , 29-H ) :   0.8292 B(  5-N , 30-H ) :   0.8212 B(  6-C ,  8-C ) :   1.6557 
[...]
 39:    736.31   0.006495   32.82  0.002753  (-0.017076 -0.035626 -0.034523)
 40:    751.19   0.000527    2.66  0.000219  (-0.007542 -0.003698  0.012181)
 41:    771.14   0.002503   12.65  0.001013  ( 0.025135  0.007534 -0.018015)
 42:    799.40   0.000541    2.73  0.000211  (-0.014163 -0.003092  0.000970)
 43:    802.93   0.000855    4.32  0.000332  ( 0.001951  0.007197  0.016632)
 44:    880.17   0.002026   10.24  0.000718  ( 0.015440 -0.013396  0.017335)
 45:    912.02   0.002191   11.07  0.000750  ( 0.003758  0.010491 -0.025011)
 46:    929.61   0.000661    3.34  0.000222  ( 0.011107 -0.007719  0.006253)
 47:    943.10   0.001381    6.98  0.000457  ( 0.011963 -0.000341  0.017711)
 48:    958.71   0.000994    5.03  0.000324  ( 0.006073  0.009063  0.014307)
 49:    980.30   0.001920    9.70  0.000611  (-0.009882  0.022343 -0.003791)
 50:    986.29   0.001253    6.33  0.000397  (-0.007381  0.008780 -0.016277)
 51:   1016.05   0.003371   17.04  0.001035  (-0.001030  0.031926 -0.003877)
 52:   1051.94   0.001080    5.46  0.000320  (-0.001358  0.007126  0.016365)
 53:   1056.44   0.002511   12.69  0.000742  ( 0.011840 -0.017948 -0.016715)
 54:   1073.89   0.008884   44.90  0.002582  ( 0.007386 -0.005477  0.049970)
 55:   1083.40   0.000297    1.50  0.000086  (-0.000941  0.009194 -0.000345)
 56:   1100.03   0.003681   18.60  0.001044  ( 0.001849 -0.022109  0.023496)
 57:   1116.42   0.001467    7.42  0.000410  (-0.007778 -0.004415 -0.018170)
 58:   1183.06   0.002596   13.12  0.000685  ( 0.007345 -0.023898 -0.007722)
 59:   1189.43   0.000176    0.89  0.000046  ( 0.002038  0.002908  0.005790)
 60:   1221.23   0.003599   18.19  0.000920  (-0.001800  0.010913 -0.028238)
 61:   1225.66   0.000752    3.80  0.000192  ( 0.002457  0.001834 -0.013496)
 62:   1242.59   0.000391    1.98  0.000098  ( 0.000257  0.009756 -0.001723)
 63:   1270.41   0.003911   19.77  0.000961  (-0.008926 -0.027138  0.012027)
 64:   1276.55   0.009203   46.51  0.002250  (-0.003059  0.047122  0.004478)
 65:   1309.58   0.000803    4.06  0.000191  ( 0.005125  0.012024 -0.004519)
 66:   1314.00   0.006258   31.62  0.001486  ( 0.022351 -0.020990  0.023367)
 67:   1327.31   0.000953    4.82  0.000224  (-0.006023  0.012011  0.006605)
 68:   1351.78   0.000314    1.58  0.000072  ( 0.006610 -0.004354  0.003120)
 69:   1382.65   0.002490   12.58  0.000562  ( 0.001396 -0.015795 -0.017620)
 70:   1401.47   0.002146   10.85  0.000478  (-0.003284 -0.020041 -0.008088)
 71:   1404.46   0.000416    2.10  0.000092  ( 0.004227  0.007664  0.003977)
 72:   1424.79   0.001743    8.81  0.000382  (-0.007928  0.000272  0.017855)
 73:   1431.88   0.010032   50.70  0.002186  (-0.012712 -0.038554 -0.023201)
 74:   1440.51   0.003599   18.19  0.000780  (-0.018688  0.019864  0.005991)
 75:   1463.55   0.010401   52.56  0.002218  (-0.005608  0.042849  0.018717)
 76:   1465.21   0.028308  143.06  0.006029  ( 0.023297  0.041258  0.061515)
 77:   1478.46   0.004963   25.08  0.001048  ( 0.009029 -0.029769 -0.008937)
 78:   1481.15   0.013178   66.60  0.002776  ( 0.039135  0.008701  0.034193)
 79:   1483.36   0.000545    2.75  0.000115  (-0.006016  0.003178 -0.008264)
 80:   1490.56   0.004835   24.43  0.001012  ( 0.002880  0.026407 -0.017508)
 81:   1494.04   0.008305   41.97  0.001735  ( 0.038242 -0.011962  0.011369)
 82:   1514.72   0.001994   10.08  0.000411  (-0.016182  0.002231 -0.011997)
 83:   1523.76   0.001133    5.72  0.000232  ( 0.001064 -0.014828 -0.003313)
 84:   1570.22   0.045047  227.65  0.008953  (-0.033039  0.067891 -0.057025)
 85:   1608.42   0.014863   75.11  0.002884  ( 0.029829  0.043230  0.011184)
 86:   1611.27   0.029220  147.67  0.005659  (-0.013014 -0.047870 -0.056554)
 87:   1671.04   0.042519  214.87  0.007940  ( 0.060675 -0.014143  0.063710)
 88:   2952.90   0.009330   47.15  0.000986  (-0.002209  0.028300 -0.013424)
 89:   3006.03   0.006189   31.28  0.000643  (-0.024629  0.005141  0.003086)
 90:   3016.36   0.000183    0.92  0.000019  ( 0.002014 -0.002272 -0.003114)
 91:   3019.16   0.003595   18.17  0.000372  ( 0.012158  0.012816  0.007714)
 92:   3024.45   0.000299    1.51  0.000031  (-0.002715  0.003007 -0.003804)
 93:   3035.90   0.002094   10.58  0.000215  (-0.014100 -0.000847 -0.003968)
 94:   3064.99   0.000368    1.86  0.000038  (-0.003871  0.000210  0.004742)
 95:   3079.99   0.000895    4.52  0.000091  (-0.001158 -0.008246  0.004619)
 96:   3081.27   0.007664   38.73  0.000776  ( 0.003847 -0.026825  0.006471)
 97:   3082.58   0.001263    6.38  0.000128  ( 0.010617  0.003818 -0.000759)
 98:   3085.06   0.000242    1.23  0.000025  (-0.002895 -0.003111 -0.002543)
 99:   3134.22   0.001285    6.49  0.000128  (-0.001949  0.009544 -0.005748)
100:   3147.40   0.000336    1.70  0.000033  ( 0.005187 -0.001897 -0.001683)
101:   3231.14   0.004483   22.65  0.000433  (-0.017618 -0.003695  0.010436)
102:   3522.85   0.012801   64.69  0.001134  ( 0.018296 -0.019279  0.020676)
103:   3637.33   0.004858   24.55  0.000417  ( 0.007233  0.019035  0.001462)
104:   3763.81   0.010535   53.24  0.000873  (-0.003545  0.013477  0.026063)

* The epsilon (eps) is given for a Dirac delta lineshape.
** The dipole moment derivative (T) already includes vibrational overlap.

The first frequency considered to be a vibration is 6
The total number of vibrations considered is 99


--------------------------
THERMOCHEMISTRY AT 298.15K
--------------------------

Temperature         ...   298.15 K
Pressure            ...     1.00 atm
Total Mass          ...   265.35 AMU
Quasi RRHO          ...     True
Cut-Off Frequency   ...     1.00 cm^-1

Throughout the following assumptions are being made:
  (1) The electronic state is orbitally nondegenerate
  (2) There are no thermally accessible electronically excited states
  (3) Hindered rotations indicated by low frequency modes are not
      treated as such but are treated as vibrations and this may
      cause some error
  (4) All equations used are the standard statistical mechanics
      equations for an ideal gas
  (5) All vibrations are strictly harmonic

freq.      20.06  E(vib)   ...       0.56 
freq.      29.88  E(vib)   ...       0.55 
freq.      31.58  E(vib)   ...       0.55 
freq.      40.23  E(vib)   ...       0.54 
freq.      57.48  E(vib)   ...       0.51 
freq.      80.10  E(vib)   ...       0.49 
freq.      95.06  E(vib)   ...       0.47 
freq.     133.69  E(vib)   ...       0.42 
freq.     152.32  E(vib)   ...       0.40 
freq.     182.31  E(vib)   ...       0.37 
freq.     201.65  E(vib)   ...       0.35 
freq.     206.24  E(vib)   ...       0.35 
freq.     261.10  E(vib)   ...       0.30 
freq.     274.11  E(vib)   ...       0.28 
freq.     288.63  E(vib)   ...       0.27 
freq.     292.68  E(vib)   ...       0.27 
freq.     321.46  E(vib)   ...       0.25 
freq.     331.53  E(vib)   ...       0.24 
freq.     342.40  E(vib)   ...       0.23 
freq.     401.86  E(vib)   ...       0.19 
freq.     416.70  E(vib)   ...       0.18 
freq.     433.42  E(vib)   ...       0.17 
freq.     459.81  E(vib)   ...       0.16 
freq.     496.64  E(vib)   ...       0.14 
freq.     511.62  E(vib)   ...       0.14 
freq.     527.02  E(vib)   ...       0.13 
freq.     572.34  E(vib)   ...       0.11 
freq.     579.65  E(vib)   ...       0.11 
freq.     598.06  E(vib)   ...       0.10 
freq.     627.73  E(vib)   ...       0.09 
freq.     648.72  E(vib)   ...       0.08 
freq.     652.69  E(vib)   ...       0.08 
freq.     690.20  E(vib)   ...       0.07 
freq.     736.31  E(vib)   ...       0.06 
freq.     751.19  E(vib)   ...       0.06 
freq.     771.14  E(vib)   ...       0.05 
freq.     799.40  E(vib)   ...       0.05 
freq.     802.93  E(vib)   ...       0.05 
freq.     880.17  E(vib)   ...       0.04 
freq.     912.02  E(vib)   ...       0.03 
freq.     929.61  E(vib)   ...       0.03 
freq.     943.10  E(vib)   ...       0.03 
freq.     958.71  E(vib)   ...       0.03 
freq.     980.30  E(vib)   ...       0.02 
freq.     986.29  E(vib)   ...       0.02 
freq.    1016.05  E(vib)   ...       0.02 
freq.    1051.94  E(vib)   ...       0.02 
freq.    1056.44  E(vib)   ...       0.02 
freq.    1073.89  E(vib)   ...       0.02 
freq.    1083.40  E(vib)   ...       0.02 
freq.    1100.03  E(vib)   ...       0.02 
freq.    1116.42  E(vib)   ...       0.01 
freq.    1183.06  E(vib)   ...       0.01 
freq.    1189.43  E(vib)   ...       0.01 
freq.    1221.23  E(vib)   ...       0.01 
freq.    1225.66  E(vib)   ...       0.01 
freq.    1242.59  E(vib)   ...       0.01 
freq.    1270.41  E(vib)   ...       0.01 
freq.    1276.55  E(vib)   ...       0.01 
freq.    1309.58  E(vib)   ...       0.01 
freq.    1314.00  E(vib)   ...       0.01 
freq.    1327.31  E(vib)   ...       0.01 
freq.    1351.78  E(vib)   ...       0.01 
freq.    1382.65  E(vib)   ...       0.01 
freq.    1401.47  E(vib)   ...       0.00 
freq.    1404.46  E(vib)   ...       0.00 
freq.    1424.79  E(vib)   ...       0.00 
freq.    1431.88  E(vib)   ...       0.00 
freq.    1440.51  E(vib)   ...       0.00 
freq.    1463.55  E(vib)   ...       0.00 
freq.    1465.21  E(vib)   ...       0.00 
freq.    1478.46  E(vib)   ...       0.00 
freq.    1481.15  E(vib)   ...       0.00 
freq.    1483.36  E(vib)   ...       0.00 
freq.    1490.56  E(vib)   ...       0.00 
freq.    1494.04  E(vib)   ...       0.00 
freq.    1514.72  E(vib)   ...       0.00 
freq.    1523.76  E(vib)   ...       0.00 
freq.    1570.22  E(vib)   ...       0.00 
freq.    1608.42  E(vib)   ...       0.00 
freq.    1611.27  E(vib)   ...       0.00 
freq.    1671.04  E(vib)   ...       0.00 
freq.    2952.90  E(vib)   ...       0.00 
freq.    3006.03  E(vib)   ...       0.00 
freq.    3016.36  E(vib)   ...       0.00 
freq.    3019.16  E(vib)   ...       0.00 
freq.    3024.45  E(vib)   ...       0.00 
freq.    3035.90  E(vib)   ...       0.00 
freq.    3064.99  E(vib)   ...       0.00 
freq.    3079.99  E(vib)   ...       0.00 
freq.    3081.27  E(vib)   ...       0.00 
freq.    3082.58  E(vib)   ...       0.00 
freq.    3085.06  E(vib)   ...       0.00 
freq.    3134.22  E(vib)   ...       0.00 
freq.    3147.40  E(vib)   ...       0.00 
freq.    3231.14  E(vib)   ...       0.00 
freq.    3522.85  E(vib)   ...       0.00 
freq.    3637.33  E(vib)   ...       0.00 
freq.    3763.81  E(vib)   ...       0.00 

------------
INNER ENERGY
------------

The inner energy is: U= E(el) + E(ZPE) + E(vib) + E(rot) + E(trans)
    E(el)   - is the total energy from the electronic structure calculation
              = E(kin-el) + E(nuc-el) + E(el-el) + E(nuc-nuc)
    E(ZPE)  - the the zero temperature vibrational energy from the frequency calculation
    E(vib)  - the the finite temperature correction to E(ZPE) due to population
              of excited vibrational states
    E(rot)  - is the rotational thermal energy
    E(trans)- is the translational thermal energy

Summary of contributions to the inner energy U:
Electronic energy                ...  -1159.31549237 Eh
Zero point energy                ...      0.28487765 Eh     178.76 kcal/mol
Thermal vibrational correction   ...      0.01581373 Eh       9.92 kcal/mol
Thermal rotational correction    ...      0.00141627 Eh       0.89 kcal/mol
Thermal translational correction ...      0.00141627 Eh       0.89 kcal/mol
-----------------------------------------------------------------------
Total thermal energy                  -1159.01196845 Eh


Summary of corrections to the electronic energy:
(perhaps to be used in another calculation)
Total thermal correction                  0.01864627 Eh      11.70 kcal/mol
Non-thermal (ZPE) correction              0.28487765 Eh     178.76 kcal/mol
-----------------------------------------------------------------------
Total correction                          0.30352392 Eh     190.46 kcal/mol


--------
ENTHALPY
--------

The enthalpy is H = U + kB*T
                kB is Boltzmann's constant
Total thermal energy              ...  -1159.01196845 Eh 
Thermal Enthalpy correction       ...      0.00094421 Eh       0.59 kcal/mol
-----------------------------------------------------------------------
Total Enthalpy                    ...  -1159.01102424 Eh


Note: Only C1 symmetry has been detected, increase convergence thresholds 
      if your molecule has a higher symmetry. Symmetry factor of 1.0 is   
      used for the rotational entropy correction. 
 

Note: Rotational entropy computed according to Herzberg 
Infrared and Raman Spectra, Chapter V,1, Van Nostrand Reinhold, 1945 
Point Group:  C1, Symmetry Number:   1  
Rotational constants in cm-1:     0.024619     0.006580     0.006371 

Vibrational entropy computed according to the QRRHO of S. Grimme
Chem.Eur.J. 2012 18 9955 using a reference frequency of 100.0 cm-1


-------
ENTROPY
-------

The entropy contributions are T*S = T*(S(el)+S(vib)+S(rot)+S(trans))
     S(el)   - electronic entropy
     S(vib)  - vibrational entropy
     S(rot)  - rotational entropy
     S(trans)- translational entropy
The entropies will be listed as multiplied by the temperature to get
units of energy

Electronic entropy                ...      0.00000000 Eh      0.00 kcal/mol
Vibrational entropy               ...      0.02832441 Eh     17.77 kcal/mol
Rotational entropy                ...      0.01601806 Eh     10.05 kcal/mol
Translational entropy             ...      0.02025338 Eh     12.71 kcal/mol
-----------------------------------------------------------------------
Final entropy term                ...      0.06459585 Eh     40.53 kcal/mol

In case the symmetry of your molecule has not been determined correctly
or in case you have a reason to use a different symmetry number we print 
out the resulting rotational entropy values for sn=1,12:

 non-linear molecules -----------------------------------
|  sn= 1 | S(rot)=       0.01601806 Eh     10.05 kcal/mol|
|  sn= 2 | S(rot)=       0.01536360 Eh      9.64 kcal/mol|
|  sn= 3 | S(rot)=       0.01498077 Eh      9.40 kcal/mol|
|  sn= 4 | S(rot)=       0.01470915 Eh      9.23 kcal/mol|
|  sn= 5 | S(rot)=       0.01449846 Eh      9.10 kcal/mol|
|  sn= 6 | S(rot)=       0.01432631 Eh      8.99 kcal/mol|
|  sn= 7 | S(rot)=       0.01418077 Eh      8.90 kcal/mol|
|  sn= 8 | S(rot)=       0.01405469 Eh      8.82 kcal/mol|
|  sn= 9 | S(rot)=       0.01394348 Eh      8.75 kcal/mol|
|  sn=10 | S(rot)=       0.01384400 Eh      8.69 kcal/mol|
|  sn=11 | S(rot)=       0.01375401 Eh      8.63 kcal/mol|
|  sn=12 | S(rot)=       0.01367186 Eh      8.58 kcal/mol|
 linear molecules ---------------------------------------
|  Dinfh | S(rot)=       0.01009956 Eh      6.34 kcal/mol|
|  Cinfv | S(rot)=       0.01075402 Eh      6.75 kcal/mol|
 --------------------------------------------------------


-------------------
GIBBS FREE ENERGY
-------------------

The Gibbs free energy is G = H - T*S

Total enthalpy                    ...  -1159.01102424 Eh 
Total entropy correction          ...     -0.06459585 Eh    -40.53 kcal/mol
-----------------------------------------------------------------------
Final Gibbs free energy         ...  -1159.07562009 Eh

For completeness - the Gibbs free energy minus the electronic energy
G-E(el)                           ...      0.23987229 Eh    150.52 kcal/mol


Maximum memory used throughout the entire PROP-calculation: 107.5 MB

--------------------------------
SUGGESTED CITATIONS FOR THIS RUN
--------------------------------

Below you find a list of papers that are relevant to this ORCA run
We neither can nor want to force you to cite these papers, but we appreciate if you do
You receive ORCA, which is the product of decades of hard work by many enthusiastic individuals, for free
The only thing we kindly ask in return is that you cite our papers,
We deeply appreciate it, if you show your appreciation for ORCA by not just citing the generic ORCA reference.

Please note that relegating all ORCA citations to the supporting information does *not* help us.
SI sections are not indexed - citations you put there will not count into any citation statistics
But we need these citations in order to attract the funding resources that allow us to do what we are doing

Therefore, if you are a happy ORCA user, please consider citing a few of the papers listed below in the main body of your paper

In addition to the list printed below, the program has created the file m1_01_Vitamin_B1-GFN1_003-B97-3C-TZ.bibtex that contains the list in bibtex format
You can import this file easily into all common literature databanks and citation aid programs


List of essential papers. We consider these as the minimum necessary citations

  1. Neese,F.
     Software update: the ORCA program system, version 5.0
     WIRES Comput. Molec. Sci., 2022 12(1)e1606
     doi.org/10.1002/wcms.1606

List of papers to cite with high priority. The work reported in these papers was absolutely
necessary for this run to complete.
Our perspective: the developers of density functionals and basis sets usually get cited in chemistry papers
Good! But without the algorithms to do something with them, the functionals or basis sets would not do anything.
Hence, in our opinion, the algorithm design and method developments papers are equally worthy of getting cited

  1. Neese,F.
     An improvement of the resolution of the identity approximation for the formation of the Coulomb matrix
     J. Comp. Chem., 2003 24(14)1740-1747
     doi.org/10.1002/jcc.10318
  2. Bykov,D.; Petrenko,T.; Izsak,R.; Kossmann,S.; Becker,U.; Valeev,E.; Neese,F.
     Efficient implementation of the analytic second derivatives of Hartree-Fock and hybrid DFT energies: a detailed analysis of different approximations
     Molec. Phys., 2015 113 1961-1977
     doi.org/10.1080/00268976.2015.1025114
  3. Neese,F.
     The SHARK Integral Generation and Digestion System
     J. Comp. Chem., 2022  1-16
     doi.org/10.1002/jcc.26942
  4. Grimme,S.; Antony,J.; Ehrlich,S.; Krieg,H.
     A consistent and accurate ab initio parametrization of density functional dispersion correction (DFT-D) for the 94 elements H-Pu
     J. Chem. Phys., 2010 132 154104
     doi.org/10.1063/1.3382344
  5. Grimme,S.; Ehrlich,S.; Goerigk,L.
     Effect of the damping function in dispersion corrected density functional theory
     J. Comput. Chem., 2011 32(7)1456-1465
     doi.org/10.1002/jcc.21759

List of suggested additional citations. These are papers that are important in the 'surrounding' of 
of this run, or papers that preceded the highly important papers. If you like your results we are grateful for a citation.

  1. Neese,F.
     The ORCA program system
     WIRES Comput. Molec. Sci., 2012 2(1)73-78
     doi.org/10.1002/wcms.81
  2. Neese,F.
     Software update: the ORCA program system, version 4.0
     WIRES Comput. Molec. Sci., 2018 8(1)1-6
     doi.org/10.1002/wcms.1327
  3. Neese,F.; Wennmohs,F.; Becker,U.; Riplinger,C.
     The ORCA quantum chemistry program package
     J. Chem. Phys., 2020 152 Art. No. L224108
     doi.org/10.1063/5.0004608

List of optional additional citations

  1. Neese,F.
     Approximate second-order SCF convergence for spin unrestricted wavefunctions
     Chem. Phys. Lett., 2000 325(1-3)93-98
     doi.org/10.1016/s0009-2614(00)00662-x

Timings for individual modules:

Sum of individual times          ...      427.005 sec (=   7.117 min)
Startup calculation              ...       55.859 sec (=   0.931 min)  13.1 %
SCF iterations                   ...      107.553 sec (=   1.793 min)  25.2 %
Property integrals               ...       80.261 sec (=   1.338 min)  18.8 %
SCF Response                     ...       83.856 sec (=   1.398 min)  19.6 %
Property calculations            ...       33.984 sec (=   0.566 min)   8.0 %
SCF Gradient evaluation          ...       65.368 sec (=   1.089 min)  15.3 %
Geometry relaxation              ...        0.125 sec (=   0.002 min)   0.0 %
                             ****ORCA TERMINATED NORMALLY****
TOTAL RUN TIME: 0 days 0 hours 7 minutes 10 seconds 298 msec
