
                                 *****************
                                 * O   R   C   A *
                                 *****************

                                            #,                                       
                                            ###                                      
                                            ####                                     
                                            #####                                    
                                            ######                                   
                                           ########,                                 
                                     ,,################,,,,,                         
                               ,,#################################,,                 
                          ,,##########################################,,             
                       ,#########################################, ''#####,          
                    ,#############################################,,   '####,        
                  ,##################################################,,,,####,       
                ,###########''''           ''''###############################       
              ,#####''   ,,,,##########,,,,          '''####'''          '####       
            ,##' ,,,,###########################,,,                        '##       
           ' ,,###''''                  '''############,,,                           
         ,,##''                                '''############,,,,        ,,,,,,###''
      ,#''                                            '''#######################'''  
     '                                                          ''''####''''         
             ,#######,   #######,   ,#######,      ##                                
            ,#'     '#,  ##    ##  ,#'     '#,    #''#        ,####,   ,####,        
            ##       ##  ##   ,#'  ##            #'  '#       #'       #'  '#        
            ##       ##  #######   ##           ,######,      #####,   #    #        
            '#,     ,#'  ##    ##  '#,     ,#' ,#      #,     #,   #   #,  ,#        
             '#######'   ##     ##  '#######'  #'      '#     '####' # '####'        



                #########################################################
                #                        -***-                          #
                #          Department of theory and spectroscopy        #
                #                                                       #
                #                      Frank Neese                      #
                #                                                       #
                #     Directorship, Architecture, Infrastructure        #
                #                    SHARK, DRIVERS                     #
                #        Core code/Algorithms in most modules           #
                #                                                       #
                #        Max Planck Institute fuer Kohlenforschung      #
                #                Kaiser Wilhelm Platz 1                 #
                #                 D-45470 Muelheim/Ruhr                 #
                #                      Germany                          #
                #                                                       #
                #                  All rights reserved                  #
                #                        -***-                          #
                #########################################################


                         Program Version 6.0.1  -  RELEASE   -


 With contributions from (in alphabetic order):
[Max-Planck-Institut fuer Kohlenforschung]                               
  Daniel Aravena         : Magnetic Suceptibility                        
  Michael Atanasov       : Ab Initio Ligand Field Theory (pilot matlab implementation)
  Alexander A. Auer      : GIAO ZORA, VPT2 properties, NMR spectrum      
  Ute Becker             : All parallelization in ORCA, NUMFREQ, NUMCALC 
  Giovanni Bistoni       : ED, misc. LED, open-shell LED, HFLD           
  Martin Brehm           : Molecular dynamics                            
  Dmytro Bykov           : pre 5.0 version of the SCF Hessian            
  Marcos Casanova-Páez   : Triplet and SCS-CIS(D). UHF-(DLPNO)-IP/EA/STEOM-CCSD. UHF-CVS-IP/STEOM-CCSD   
  Vijay G. Chilkuri      : MRCI spin determinant printing, contributions to CSF-ICE 
  Pauline Colinet        : FMM embedding                                 
  Dipayan Datta          : RHF DLPNO-CCSD density                        
  Achintya Kumar Dutta   : EOM-CC, STEOM-CC                              
  Nicolas Foglia         : Exact transition moments, OPA infrastructure, MCD improvements    
  Dmitry Ganyushin       : Spin-Orbit,Spin-Spin,Magnetic field MRCI      
  Miquel Garcia-Rates    : C-PCM and meta-GGA Hessian, CCSD/C-PCM, Gaussian charge scheme 
  Tiago L. C. Gouveia    : GS-ROHF, GS-ROCIS                             
  Yang Guo               : DLPNO-NEVPT2, F12-NEVPT2, CIM, IAO-localization        
  Andreas Hansen         : Spin unrestricted coupled pair/coupled cluster methods 
  Ingolf Harden          : AUTO-CI MPn and infrastructure                
  Benjamin Helmich-Paris : MC-RPA, TRAH-(SCF,CASSCF), AVAS, COSX integrals, SCF dyn. polar. 
  Lee Huntington         : MR-EOM, pCC                                   
  Robert Izsak           : Overlap fitted RIJCOSX, COSX-SCS-MP3, EOM     
  Riya Kayal             : Wick's Theorem for AUTO-CI, AUTO-CI UHF-CCSDT 
  Emily Kempfer          : AUTO-CI, RHF CISDT and CCSDT                  
  Christian Kollmar      : KDIIS, OOCD, Brueckner-CCSD(T), CCSD density, CASPT2, CASPT2-K, improved NEVPT2 
  Axel Koslowski         : Symmetry handling                             
  Simone Kossmann        : meta-GGA functionals, TD-DFT gradient, OOMP2, (MP2 Hessian; deprecated post 5.0) 
  Lucas Lang             : DCDCAS                                        
  Marvin Lechner         : AUTO-CI (C++ implementation), FIC-MRCC        
  Spencer Leger          : CASSCF response                               
  Dagmar Lenk            : GEPOL surface, SMD, ORCA-2-JSON               
  Dimitrios Liakos       : Extrapolation schemes; Compound Job, initial MDCI parallelization 
  Dimitrios Manganas     : Further ROCIS development; embedding schemes. LFT, Crystal Embedding 
  Dimitrios Pantazis     : SARC Basis sets                               
  Anastasios Papadopoulos: AUTO-CI, single reference methods and gradients 
  Taras Petrenko         : pre 6.0 DFT Hessian and TD-DFT gradient, (ASA, deprecated), ECA, 1-Electron XAS/XES, NRVS 
  Peter Pinski           : DLPNO-MP2, DLPNO-MP2 Gradient                 
  Christoph Reimann      : Effective Core Potentials                     
  Marius Retegan         : Local ZFS, SOC                                
  Christoph Riplinger    : Optimizer, TS searches, QM/MM, DLPNO-CCSD(T), (RO)-DLPNO pert. Triples 
  Michael Roemelt        : Original ROCIS implementation                 
  Masaaki Saitow         : Open-shell DLPNO-CCSD energy and density      
  Barbara Sandhoefer     : DKH picture change effects                    
  Kantharuban Sivalingam : CASSCF convergence/infrastructure, NEVPT2 and variants, FIC-MRCI 
  Bernardo de Souza      : ESD, SOC TD-DFT                               
  Georgi L. Stoychev     : AutoAux, RI-MP2 NMR, DLPNO-MP2 response, X2C  
  Van Anh Tran           : RI-MP2 g-tensors                              
  Willem Van den Heuvel  : Paramagnetic NMR                              
  Zikuan Wang            : NOTCH, Electric field optimization            
  Frank Wennmohs         : Technical directorship and infrastructure     
  Hang Xu                : AUTO-CI-Response properties                   
                                                                         
[FACCTs GmbH]                                                            
  Markus Bursch, Miquel Garcia-Rates, Christoph Riplinger, Bernardo de Souza, Georgi L. Stoychev 
                                                                 
  APM, Basis sets (HGBS, AHGBS, def-TZVP (Ac-Lr), def2-XVPD (La-Lu)), CI-OPT, improved COSX, DLPNO-Multilevel,           
  DOCKER, DRACO, updates on ESD, GOAT, IRC, LR-CPCM, MBIS, meta-GGA TD-DFT gradient, ML-optimized integration grids, 
  MM, NACMEs, nearIR, NEB, NEB-TS, NL-DFT gradient (VV10), 2- and 3-layer-ONIOM, interface openCOSMO-RS, QMMM,   
  Crystal-QMMM, SF, symmetry and pop. for TD-DFT, r2SCAN hybrids, SOLVATOR                                   
                                                                         
[Other institutions]                                                     
  V. Asgeirsson          : NEB                                           
  Christoph Bannwarth    : sTDA-DFT, sTD-DFT, PBEh-3c, B97-3c, D3        
  Sebastian Ehlert       : rSCAN, r2SCAN, r2SCAN-3c, D4, dhf basis sets  
  Marvin Friede          : D4 for Fr, Ra, Ac-Lr                          
  Lars Goerigk           : TD-DFT with DH, B97 family of functionals     
  Stefan Grimme          : VdW corrections, initial TS optimization, DFT functionals, gCP, sTDA/sTD-DF 
  Waldemar Hujo          : DFT-NL                                        
  H. Jonsson             : NEB                                           
  Holger Kruse           : gCP                                           
  Marcel Mueller         : wB97X-3c, vDZP basis set                      
  Hagen Neugebauer       : wr2SCAN                                       
  Tobias Risthaus        : range-separated hybrid DFT                    
  Lukas Wittmann         : regularized MP2, r2SCAN double-hybrids, wr2SCAN        
                                                                         
We gratefully acknowledge several colleagues who have allowed us to      
interface, adapt or use parts of their codes:                            
  Ed Valeev, F. Pavosevic, A. Kumar             : LibInt (2-el integral package), F12 methods 
  Garnet Chan, S. Sharma, J. Yang, R. Olivares  : DMRG                   
  Ulf Ekstrom                                   : XCFun DFT Library      
  Mihaly Kallay                                 : mrcc  (arbitrary order and MRCC methods)
  Frank Weinhold                                : gennbo (NPA and NBO analysis)           
  Simon Mueller                                 : openCOSMO-RS                            
  Christopher J. Cramer and Donald G. Truhlar   : smd solvation model                     
  S Lehtola, MJT Oliveira, MAL Marques          : LibXC Library                           
  Liviu Ungur et al                             : ANISO software                          


 Your calculation uses the libint2 library for the computation of 2-el integrals
 For citations please refer to: http://libint.valeyev.net

 Your ORCA version has been built with support for libXC version: 6.2.2
 For citations please refer to: https://libxc.gitlab.io

 This ORCA versions uses:
   CBLAS   interface :  Fast vector & matrix operations
   LAPACKE interface :  Fast linear algebra routines
   SCALAPACK package :  Parallel linear algebra routines
   Shared memory     :  Shared parallel matrices
   BLAS/LAPACK       :  OpenBLAS 0.3.27  USE64BITINT DYNAMIC_ARCH NO_AFFINITY Zen SINGLE_THREADED
        Core in use  :  Zen
   Copyright (c) 2011-2014, The OpenBLAS Project


NOTE: MaxCore=6000 MB was set to SCF,MP2,MDCI,CIPSI,MRCI and CIS
      => If you want to overwrite this, your respective input block should be placed after the MaxCore statement
Your calculation utilizes the atom-pairwise dispersion correction
with the Becke-Johnson damping scheme (D3BJ)


Your calculation employs the composite approach B97-3c by Grimme and coworkers.
For the correct reference, please check the publication list of the Grimme group:
http://www.thch.uni-bonn.de/tc/index.php?section=publikationen&subsection=grimme#2017
   

XCFun DFT library Copyright 2009-2010 Ulf Ekstrom and contributors.
See http://admol.org/xcfun for more information.
This is free software; see the source code for copying conditions.
There is ABSOLUTELY NO WARRANTY; not even for MERCHANTABILITY or FITNESS FOR A PARTICULAR PURPOSE.
For details see the documentation.
Scientific users of this library should cite U. Ekstrom, L. Visscher, R. Bast, A. J. Thorvaldsen and K. Ruud;
J.Chem.Theor.Comp. 2010, DOI: 10.1021/ct100117s
XCFun Version 0.99 

================================================================================

----- Orbital basis set information -----
Your calculation utilizes the basis: def2-mTZVP
----- AuxJ basis set information -----
Your calculation utilizes the basis: def2-mTZVP/J
================================================================================
                                        WARNINGS
                       Please study these warnings very carefully!
================================================================================


WARNING: Geometry Optimization
  ===> : Switching off AutoStart
         For restart on a previous wavefunction, please use MOREAD

================================================================================
                                       INPUT FILE
================================================================================
NAME = m1_01_Vitamin_B1-GFN1_000-B97-3C-TZ.inp
|  1> %pal nprocs 16 end
|  2> %MaxCore 6000
|  3> # put your comments here
|  4> ! B97-3C  OPT  FREQ DEFGRID3 NOTRAH
|  5> %scf MaxIter 800 end
|  6> %output
|  7> Print [P_Hirshfeld] 1
|  8> end
|  9> %geom
| 10> MaxIter 3000
| 11>  TolE 1e-6 #TolE 5e-6 Energy change (a.u.)
| 12>  TolRMSG 3e-5 #TolRMSG 1e-4 RMS gradient (a.u.)
| 13>  TolMaxG 1e-4 #TolMaxG 3e-3 Max. element of gradient (a.u.)
| 14>  TolRMSD 2e-3 #TolRMSD 2e-3 RMS displacement (a.u.)
| 15>  TolMaxD 4e-3 #TolMaxD 4e-3 Max. displacement (a.u.)
| 16> end
| 17> * xyz 1 1
| 18>  S -1.16275168354444 5.65723142519800 -4.35719852211626
| 19>  O -0.55927503906419 3.61450888692718 -7.97600235991321
| 20>  N -2.95127439152073 6.34702847913129 -5.96324623214497
| 21>  N -3.42519623164753 7.44767301226396 -10.42627813938862
| 22>  N -1.54613156783791 8.37123837223315 -9.34867985015771
| 23>  N -5.22593029649609 6.59455682767520 -9.31041071222714
| 24>  C -2.63939043815120 5.05707594567868 -6.34722944989459
| 25>  C -3.91118437771443 7.19282724849540 -6.69090841275190
| 26>  C -1.66831639646742 4.52372404173058 -5.55123581822064
| 27>  C -1.00981971955075 3.19005220184193 -5.67611849487596
| 28>  C -3.34753322307494 7.52318590481840 -8.05265012934644
| 29>  C -2.25449878722332 6.80159261857642 -4.93938273359517
| 30>  C -3.30805088557517 4.40999274486595 -7.51052500115086
| 31>  C 0.06819548304162 3.22492452044515 -6.77430220054642
| 32>  C -4.00674474544703 7.21091961444162 -9.25292187587306
| 33>  C -2.09825575765201 8.11765175856430 -8.17474958736712
| 34>  C -2.22930698409827 8.01887286950116 -10.44027966694147
| 35>  C -1.60520016526914 8.29993246208600 -11.76496487266822
| 36>  H -4.07221345855291 8.09247144149526 -6.09026265572800
| 37>  H -4.85302897924465 6.64401707360360 -6.75908490534480
| 38>  H -1.75770469110157 2.43994654881592 -5.94661508212271
| 39>  H -0.55040067987723 2.90305339834725 -4.72884357610917
| 40>  H -2.38614885808201 7.78877508741743 -4.52764484791879
| 41>  H -4.38045329357791 4.60414813935635 -7.51340932444739
| 42>  H -2.88520615078182 4.79591978741680 -8.43900187125081
| 43>  H -3.13468944695597 3.33621802272040 -7.48470542242411
| 44>  H 0.51017831749859 2.22233456776060 -6.86345676286490
| 45>  H 0.85795466322632 3.93957408753492 -6.49383354891414
| 46>  H -1.52471493689291 8.38495541755136 -7.29034337304648
| 47>  H -5.61439392942979 6.58159658787247 -10.24175811061701
| 48>  H -5.89516538761580 6.78901533001436 -8.58538074666836
| 49>  H 0.00890131097244 3.41633275471885 -8.73223044365749
| 50>  H -2.08220701281935 7.70775574862703 -12.54305146272136
| 51>  H -1.73000396288922 9.35786144627651 -12.00282760884580
| 52>  H -0.53759529657983 8.08824762600172 -11.72993419813231
| 53> *
| 54> 
| 55> 
| 56> 
| 57> 
| 58>                          ****END OF INPUT****
================================================================================

                       *****************************
                       * Geometry Optimization Run *
                       *****************************

Geometry optimization settings:
Update method            Update   .... BFGS
Choice of coordinates    CoordSys .... (2022) Redundant Internals
Initial Hessian          InHess   .... Almloef's Model
Max. no of cycles        MaxIter  .... 3000

Convergence Tolerances:
Energy Change            TolE     ....  1.0000e-06 Eh
Max. Gradient            TolMAXG  ....  1.0000e-04 Eh/bohr
RMS Gradient             TolRMSG  ....  3.0000e-05 Eh/bohr
Max. Displacement        TolMAXD  ....  4.0000e-03 bohr
RMS Displacement         TolRMSD  ....  2.0000e-03 bohr
Strict Convergence                .... False

------------------------------------------------------------------------------
                        ORCA OPTIMIZATION COORDINATE SETUP
------------------------------------------------------------------------------

The optimization will be done in redundant internal coordinates (2022)
Making redundant internal coordinates   ...  (2022 redundants) done
Evaluating the initial hessian          ...  (Almloef) done
Evaluating the coordinates              ...  done
Calculating the B-matrix                .... done
Calculating the G-matrix                .... done
Diagonalizing the G-matrix              .... done
Small eigenvalue found = 2.706e-03
Small eigenvalue found = 8.501e-03
Small eigenvalue found = 1.104e-02
Small eigenvalue found = 1.480e-02
The first mode is                       ....   68
The number of degrees of freedom        ....   99

    -----------------------------------------------------------------
                    Redundant Internal Coordinates


    -----------------------------------------------------------------
         Definition                    Initial Value    Approx d2E/dq
    -----------------------------------------------------------------
      1. B(C   6,N   2)                  1.3816         0.577232   
      2. B(C   7,N   2)                  1.4718         0.414300   
      3. B(C   8,S   0)                  1.7223         0.497068   
      4. B(C   8,C   6)                  1.3642         0.686899   
      5. B(C   9,C   8)                  1.4926         0.428574   
      6. B(C  10,C   7)                  1.5104         0.401528   
      7. B(C  11,S   0)                  1.6854         0.569233   
      8. B(C  11,N   2)                  1.3193         0.725692   
      9. B(C  12,C   6)                  1.4897         0.433253   
     10. B(C  13,C   9)                  1.5393         0.361072   
     11. B(C  13,O   1)                  1.4105         0.518956   
     12. B(C  14,C  10)                  1.4045         0.592307   
     13. B(C  14,N   5)                  1.3673         0.608172   
     14. B(C  14,N   3)                  1.3308         0.695557   
     15. B(C  15,N   4)                  1.3218         0.718822   
     16. B(C  15,C  10)                  1.3889         0.627369   
     17. B(C  16,N   4)                  1.3351         0.684655   
     18. B(C  16,N   3)                  1.3254         0.709548   
     19. B(C  17,C  16)                  1.4911         0.431008   
     20. B(H  18,C   7)                  1.0936         0.355307   
     21. B(H  19,C   7)                  1.0922         0.357195   
     22. B(H  20,C   9)                  1.0932         0.355848   
     23. B(H  21,C   9)                  1.0912         0.358488   
     24. B(H  22,C  11)                  1.0777         0.376776   
     25. B(H  23,C  12)                  1.0898         0.360312   
     26. B(H  24,C  12)                  1.0908         0.359066   
     27. B(H  25,C  12)                  1.0880         0.362774   
     28. B(H  26,C  13)                  1.0993         0.347991   
     29. B(H  27,C  13)                  1.1014         0.345317   
     30. B(H  28,C  15)                  1.0875         0.363472   
     31. B(H  29,N   5)                  1.0092         0.433985   
     32. B(H  30,N   5)                  1.0057         0.439657   
     33. B(H  31,O   1)                  0.9664         0.507826   
     34. B(H  32,C  17)                  1.0879         0.362827   
     35. B(H  33,C  17)                  1.0915         0.358123   
     36. B(H  34,C  17)                  1.0890         0.361488   
     37. A(C   8,S   0,C  11)           90.9879         0.457735   
     38. A(C  13,O   1,H  31)          110.3945         0.357583   
     39. A(C   6,N   2,C  11)          114.7204         0.435076   
     40. A(C   7,N   2,C  11)          122.0155         0.410049   
     41. A(C   6,N   2,C   7)          123.1187         0.393841   
     42. A(C  14,N   3,C  16)          118.7041         0.448162   
     43. A(C  15,N   4,C  16)          117.5009         0.447933   
     44. A(C  14,N   5,H  29)          112.8180         0.357675   
     45. A(C  14,N   5,H  30)          118.4171         0.358465   
     46. A(H  29,N   5,H  30)          114.3093         0.304175   
     47. A(C   8,C   6,C  12)          127.2533         0.414645   
     48. A(N   2,C   6,C  12)          121.4192         0.399498   
     49. A(N   2,C   6,C   8)          111.3191         0.433636   
     50. A(C  10,C   7,H  19)          112.0517         0.327756   
     51. A(N   2,C   7,H  19)          107.7287         0.327475   
     52. A(C  10,C   7,H  18)          111.7275         0.327469   
     53. A(N   2,C   7,C  10)          109.1504         0.372128   
     54. A(H  18,C   7,H  19)          108.7026         0.289860   
     55. A(N   2,C   7,H  18)          107.2907         0.327189   
     56. A(S   0,C   8,C   6)          110.8653         0.448516   
     57. A(C   6,C   8,C   9)          127.9190         0.413846   
     58. A(S   0,C   8,C   9)          121.1025         0.412109   
     59. A(C   8,C   9,C  13)          110.3907         0.369842   
     60. A(C  13,C   9,H  20)          108.5496         0.321886   
     61. A(H  20,C   9,H  21)          108.8050         0.290093   
     62. A(C   8,C   9,H  21)          110.3717         0.331503   
     63. A(C   8,C   9,H  20)          109.3882         0.331097   
     64. A(C  13,C   9,H  21)          109.2953         0.322276   
     65. A(C  14,C  10,C  15)          116.2444         0.431430   
     66. A(C   7,C  10,C  15)          120.5680         0.402588   
     67. A(C   7,C  10,C  14)          123.1406         0.398532   
     68. A(S   0,C  11,N   2)          112.1027         0.461268   
     69. A(N   2,C  11,H  22)          123.2041         0.363024   
     70. A(S   0,C  11,H  22)          124.6905         0.368881   
     71. A(H  23,C  12,H  25)          109.4314         0.291205   
     72. A(H  24,C  12,H  25)          107.9157         0.291046   
     73. A(C   6,C  12,H  25)          109.7949         0.332754   
     74. A(H  23,C  12,H  24)          108.4312         0.290735   
     75. A(C   6,C  12,H  24)          109.6956         0.332188   
     76. A(C   6,C  12,H  23)          111.4918         0.332379   
     77. A(O   1,C  13,C   9)          107.6098         0.379859   
     78. A(H  26,C  13,H  27)          108.9124         0.287392   
     79. A(C   9,C  13,H  27)          109.5848         0.320308   
     80. A(O   1,C  13,H  27)          110.8983         0.338034   
     81. A(C   9,C  13,H  26)          108.5889         0.320712   
     82. A(O   1,C  13,H  26)          111.2020         0.338469   
     83. A(N   3,C  14,N   5)          115.6434         0.435845   
     84. A(N   5,C  14,C  10)          123.6858         0.426232   
     85. A(N   3,C  14,C  10)          120.5850         0.436637   
     86. A(C  10,C  15,H  28)          120.5381         0.354175   
     87. A(N   4,C  15,H  28)          117.0533         0.360219   
     88. A(N   4,C  15,C  10)          122.4047         0.443824   
     89. A(N   4,C  16,C  17)          117.5455         0.411348   
     90. A(N   3,C  16,C  17)          117.9235         0.413964   
     91. A(N   3,C  16,N   4)          124.5288         0.446880   
     92. A(H  33,C  17,H  34)          107.9101         0.290764   
     93. A(H  32,C  17,H  34)          110.3069         0.291361   
     94. A(C  16,C  17,H  34)          110.1901         0.332272   
     95. A(H  32,C  17,H  33)          108.7584         0.290933   
     96. A(C  16,C  17,H  33)          109.1744         0.331758   
     97. A(C  16,C  17,H  32)          110.4424         0.332476   
     98. D(C  12,C   6,N   2,C   7)     -2.5571         0.026708   
     99. D(C  12,C   6,N   2,C  11)   -178.2484         0.026708   
    100. D(C   8,C   6,N   2,C  11)      0.7699         0.026708   
    101. D(C   8,C   6,N   2,C   7)    176.4612         0.026708   
    102. D(H  19,C   7,N   2,C   6)     54.9439         0.014639   
    103. D(C  10,C   7,N   2,C  11)    108.4388         0.014639   
    104. D(H  18,C   7,N   2,C  11)    -12.7946         0.014639   
    105. D(C  10,C   7,N   2,C   6)    -66.9447         0.014639   
    106. D(H  18,C   7,N   2,C   6)    171.8219         0.014639   
    107. D(C   9,C   8,C   6,N   2)   -176.7205         0.033127   
    108. D(S   0,C   8,C   6,N   2)     -0.6009         0.033127   
    109. D(S   0,C   8,C   6,C  12)    178.3466         0.033127   
    110. D(C   9,C   8,C   6,C  12)      2.2270         0.033127   
    111. D(C   6,C   8,S   0,C  11)      0.2501         0.005160   
    112. D(C   9,C   8,S   0,C  11)    176.6754         0.005160   
    113. D(H  21,C   9,C   8,S   0)     24.1989         0.013567   
    114. D(H  20,C   9,C   8,C   6)    -40.3530         0.013567   
    115. D(H  20,C   9,C   8,S   0)    143.8823         0.013567   
    116. D(C  13,C   9,C   8,C   6)     79.0277         0.013567   
    117. D(C  13,C   9,C   8,S   0)    -96.7369         0.013567   
    118. D(C  15,C  10,C   7,H  18)     63.2805         0.011961   
    119. D(C  15,C  10,C   7,N   2)    -55.2144         0.011961   
    120. D(C  14,C  10,C   7,H  19)      2.9594         0.011961   
    121. D(C  14,C  10,C   7,H  18)   -119.3064         0.011961   
    122. D(C  14,C  10,C   7,N   2)    122.1987         0.011961   
    123. D(H  22,C  11,N   2,C   6)    179.9995         0.043906   
    124. D(S   0,C  11,N   2,C   7)   -176.3216         0.043906   
    125. D(S   0,C  11,N   2,C   6)     -0.5775         0.043906   
    126. D(N   2,C  11,S   0,C   8)      0.1821         0.006369   
    127. D(H  22,C  11,N   2,C   7)      4.2554         0.043906   
    128. D(H  22,C  11,S   0,C   8)    179.5949         0.006369   
    129. D(H  25,C  12,C   6,N   2)   -164.6581         0.013858   
    130. D(H  24,C  12,C   6,C   8)   -101.9395         0.013858   
    131. D(H  24,C  12,C   6,N   2)     76.9115         0.013858   
    132. D(H  23,C  12,C   6,C   8)    137.9378         0.013858   
    133. D(H  23,C  12,C   6,N   2)    -43.2112         0.013858   
    134. D(H  26,C  13,C   9,H  21)     60.2381         0.010455   
    135. D(H  26,C  13,C   9,H  20)    -58.2990         0.010455   
    136. D(H  26,C  13,C   9,C   8)   -178.1864         0.010455   
    137. D(O   1,C  13,C   9,H  21)   -179.2928         0.010455   
    138. D(O   1,C  13,C   9,H  20)     62.1701         0.010455   
    139. D(O   1,C  13,C   9,C   8)    -57.7173         0.010455   
    140. D(H  27,C  13,O   1,H  31)     75.8843         0.021348   
    141. D(H  26,C  13,O   1,H  31)    -45.4649         0.021348   
    142. D(C   9,C  13,O   1,H  31)   -164.2716         0.021348   
    143. D(N   5,C  14,C  10,C   7)      0.8272         0.024153   
    144. D(N   3,C  14,C  10,C  15)      1.8622         0.024153   
    145. D(N   3,C  14,C  10,C   7)   -175.6545         0.024153   
    146. D(C  10,C  14,N   5,H  30)     33.4379         0.029863   
    147. D(C  10,C  14,N   5,H  29)    170.7832         0.029863   
    148. D(N   3,C  14,N   5,H  30)   -149.9217         0.029863   
    149. D(N   3,C  14,N   5,H  29)    -12.5764         0.029863   
    150. D(C  10,C  14,N   3,C  16)     -1.9262         0.036186   
    151. D(N   5,C  14,C  10,C  15)    178.3438         0.024153   
    152. D(N   5,C  14,N   3,C  16)   -178.6790         0.036186   
    153. D(H  28,C  15,C  10,C  14)   -179.7481         0.027275   
    154. D(H  28,C  15,C  10,C   7)     -2.1631         0.027275   
    155. D(N   4,C  15,C  10,C  14)     -0.4820         0.027275   
    156. D(N   4,C  15,C  10,C   7)    177.1031         0.027275   
    157. D(H  28,C  15,N   4,C  16)    178.5118         0.038897   
    158. D(C  10,C  15,N   4,C  16)     -0.7785         0.038897   
    159. D(C  17,C  16,N   3,C  14)   -178.8516         0.037802   
    160. D(N   4,C  16,N   3,C  14)      0.5921         0.037802   
    161. D(C  17,C  16,N   4,C  15)   -179.7813         0.034957   
    162. D(N   3,C  16,N   4,C  15)      0.7731         0.034957   
    163. D(H  34,C  17,C  16,N   3)   -140.3892         0.013718   
    164. D(H  33,C  17,C  16,N   4)    -78.2172         0.013718   
    165. D(H  33,C  17,C  16,N   3)    101.2659         0.013718   
    166. D(H  32,C  17,C  16,N   4)    162.2474         0.013718   
    167. D(H  32,C  17,C  16,N   3)    -18.2695         0.013718   
    -----------------------------------------------------------------

Number of atoms                         .... 35
Number of degrees of freedom            .... 167


         *************************************************************
         *                GEOMETRY OPTIMIZATION CYCLE   1            *
         *************************************************************
---------------------------------
CARTESIAN COORDINATES (ANGSTROEM)
---------------------------------
  S     -1.162752    5.657231   -4.357199
  O     -0.559275    3.614509   -7.976002
  N     -2.951274    6.347028   -5.963246
  N     -3.425196    7.447673  -10.426278
  N     -1.546132    8.371238   -9.348680
  N     -5.225930    6.594557   -9.310411
  C     -2.639390    5.057076   -6.347229
  C     -3.911184    7.192827   -6.690908
  C     -1.668316    4.523724   -5.551236
  C     -1.009820    3.190052   -5.676118
  C     -3.347533    7.523186   -8.052650
  C     -2.254499    6.801593   -4.939383
  C     -3.308051    4.409993   -7.510525
  C      0.068195    3.224925   -6.774302
  C     -4.006745    7.210920   -9.252922
  C     -2.098256    8.117652   -8.174750
  C     -2.229307    8.018873  -10.440280
  C     -1.605200    8.299932  -11.764965
  H     -4.072213    8.092471   -6.090263
  H     -4.853029    6.644017   -6.759085
  H     -1.757705    2.439947   -5.946615
  H     -0.550401    2.903053   -4.728844
  H     -2.386149    7.788775   -4.527645
  H     -4.380453    4.604148   -7.513409
  H     -2.885206    4.795920   -8.439002
  H     -3.134689    3.336218   -7.484705
  H      0.510178    2.222335   -6.863457
  H      0.857955    3.939574   -6.493834
  H     -1.524715    8.384955   -7.290343
  H     -5.614394    6.581597  -10.241758
  H     -5.895165    6.789015   -8.585381
  H      0.008901    3.416333   -8.732230
  H     -2.082207    7.707756  -12.543051
  H     -1.730004    9.357861  -12.002828
  H     -0.537595    8.088248  -11.729934

----------------------------
CARTESIAN COORDINATES (A.U.)
----------------------------
  NO LB      ZA    FRAG     MASS         X           Y           Z
   0 S    16.0000    0    32.060   -2.197282   10.690618   -8.233912
   1 O     8.0000    0    15.999   -1.056877    6.830432  -15.072460
   2 N     7.0000    0    14.007   -5.577100   11.994146  -11.268902
   3 N     7.0000    0    14.007   -6.472683   14.074062  -19.702810
   4 N     7.0000    0    14.007   -2.921765   15.819348  -17.666445
   5 N     7.0000    0    14.007   -9.875577   12.461906  -17.594126
   6 C     6.0000    0    12.011   -4.987725    9.556489  -11.994525
   7 C     6.0000    0    12.011   -7.391067   13.592474  -12.643984
   8 C     6.0000    0    12.011   -3.152661    8.548600  -10.490315
   9 C     6.0000    0    12.011   -1.908283    6.028325  -10.726309
  10 C     6.0000    0    12.011   -6.325921   14.216761  -15.217303
  11 C     6.0000    0    12.011   -4.260385   12.853147   -9.334081
  12 C     6.0000    0    12.011   -6.251310    8.333679  -14.192835
  13 C     6.0000    0    12.011    0.128871    6.094224  -12.801576
  14 C     6.0000    0    12.011   -7.571650   13.626663  -17.485488
  15 C     6.0000    0    12.011   -3.965129   15.340139  -15.448038
  16 C     6.0000    0    12.011   -4.212780   15.153474  -19.729269
  17 C     6.0000    0    12.011   -3.033389   15.684599  -22.232562
  18 H     1.0000    0     1.008   -7.695368   15.292555  -11.508929
  19 H     1.0000    0     1.008   -9.170896   12.555373  -12.772819
  20 H     1.0000    0     1.008   -3.321580    4.610831  -11.237474
  21 H     1.0000    0     1.008   -1.040107    5.485976   -8.936219
  22 H     1.0000    0     1.008   -4.509168   14.718652   -8.556009
  23 H     1.0000    0     1.008   -8.277857    8.700579  -14.198286
  24 H     1.0000    0     1.008   -5.452249    9.062975  -15.947402
  25 H     1.0000    0     1.008   -5.923705    6.304538  -14.144043
  26 H     1.0000    0     1.008    0.964097    4.199604  -12.970054
  27 H     1.0000    0     1.008    1.621299    7.444716  -12.271567
  28 H     1.0000    0     1.008   -2.881294   15.845269  -13.776752
  29 H     1.0000    0     1.008  -10.609667   12.437415  -19.354118
  30 H     1.0000    0     1.008  -11.140248   12.829380  -16.224018
  31 H     1.0000    0     1.008    0.016821    6.455933  -16.501524
  32 H     1.0000    0     1.008   -3.934801   14.565547  -23.702932
  33 H     1.0000    0     1.008   -3.269234   17.683795  -22.682057
  34 H     1.0000    0     1.008   -1.015908   15.284573  -22.166363

--------------------------------
INTERNAL COORDINATES (ANGSTROEM)
--------------------------------
 S      0   0   0     0.000000000000     0.00000000     0.00000000
 O      1   0   0     4.199123794942     0.00000000     0.00000000
 N      1   2   0     2.500804410475    71.54889546     0.00000000
 N      3   1   2     4.621111782238   139.40127326   318.37010228
 N      4   3   1     2.354798305135    64.50794239   317.00199869
 N      4   3   1     2.283771116315    61.31451865   153.64323420
 C      3   1   2     1.381554287910    76.08403568    29.38446302
 C      3   1   2     1.471833886326   160.46576398   219.28782807
 C      7   3   1     1.364204863480   111.31908517     0.39836428
 C      9   7   3     1.492613189326   127.91902919   183.27954708
 C      8   3   1     1.510357563178   109.15037556   101.55808756
 C      3   1   2     1.319250265596    38.63802218   209.92492237
 C      7   3   1     1.489657679568   121.41917783   181.38006164
 C      2   1   3     1.410524196085    57.59362002   195.47099760
 C      4   3   1     1.330795163207    31.88707654   174.07469418
 C      5   4   3     1.321839458295    89.87748780   342.63421468
 C      4   3   1     1.325374064966    91.16400563   325.32586046
 C     17   4   3     1.491071664999   117.92347769   164.31032258
 H      8   3   1     1.093647733187   107.29065810   340.32471039
 H      8   3   1     1.092205061167   107.72865578   223.44671259
 H     10   9   7     1.093233197943   109.38821315   319.64700624
 H     10   9   7     1.091221306127   110.37169487   199.96353568
 H     12   3   1     1.077677620834   123.20411531   180.57703435
 H     13   7   3     1.089840153977   111.49177222   316.78881777
 H     13   7   3     1.090782586139   109.69561603    76.91151464
 H     13   7   3     1.087985750350   109.79490441   195.34189848
 H     14   2   1     1.099310681819   111.20201735   166.43288696
 H     14   2   1     1.101411018184   110.89830978   287.78213381
 H     16   5   4     1.087462491819   117.05332833   178.87024608
 H      6   4   3     1.009197670635    81.80110198   188.27807268
 H      6   4   3     1.005663048578   143.58541776    67.92612583
 H      2   1   3     0.966425919955   149.16031198   120.42227542
 H     18  17   4     1.087946475794   110.44235780   341.73048210
 H     18  17   4     1.091498238548   109.17436493   101.26593592
 H     18  17   4     1.088952603944   110.19007108   219.61076976

---------------------------
INTERNAL COORDINATES (A.U.)
---------------------------
 S      0   0   0     0.000000000000     0.00000000     0.00000000
 O      1   0   0     7.935193974872     0.00000000     0.00000000
 N      1   2   0     4.725835450300    71.54889546     0.00000000
 N      3   1   2     8.732635702667   139.40127326   318.37010228
 N      4   3   1     4.449923897327    64.50794239   317.00199869
 N      4   3   1     4.315701962394    61.31451865   153.64323420
 C      3   1   2     2.610759243295    76.08403568    29.38446302
 C      3   1   2     2.781362959781   160.46576398   219.28782807
 C      7   3   1     2.577973582541   111.31908517     0.39836428
 C      9   7   3     2.820630151705   127.91902919   183.27954708
 C      8   3   1     2.854162158702   109.15037556   101.55808756
 C      3   1   2     2.493021704080    38.63802218   209.92492237
 C      7   3   1     2.815045047676   121.41917783   181.38006164
 C      2   1   3     2.665504435870    57.59362002   195.47099760
 C      4   3   1     2.514838398807    31.88707654   174.07469418
 C      5   4   3     2.497914569188    89.87748780   342.63421468
 C      4   3   1     2.504594007788    91.16400563   325.32586046
 C     17   4   3     2.817717092899   117.92347769   164.31032258
 H      8   3   1     2.066694702707   107.29065810   340.32471039
 H      8   3   1     2.063968447688   107.72865578   223.44671259
 H     10   9   7     2.065911344624   109.38821315   319.64700624
 H     10   9   7     2.062109420081   110.37169487   199.96353568
 H     12   3   1     2.036515564031   123.20411531   180.57703435
 H     13   7   3     2.059499420767   111.49177222   316.78881777
 H     13   7   3     2.061280359454   109.69561603    76.91151464
 H     13   7   3     2.055995105770   109.79490441   195.34189848
 H     14   2   1     2.077396124732   111.20201735   166.43288696
 H     14   2   1     2.081365185250   110.89830978   287.78213381
 H     16   5   4     2.055006290450   117.05332833   178.87024608
 H      6   4   3     1.907107212492    81.80110198   188.27807268
 H      6   4   3     1.900427744818   143.58541776    67.92612583
 H      2   1   3     1.826280317439   149.16031198   120.42227542
 H     18  17   4     2.055920887616   110.44235780   341.73048210
 H     18  17   4     2.062632746513   109.17436493   101.26593592
 H     18  17   4     2.057822194274   110.19007108   219.61076976

---------------------
BASIS SET INFORMATION
---------------------
There are 5 groups of distinct atoms

 Group   1 Type S   : 14s9p1d contracted to 5s4p1d pattern {73211/6111/1}
 Group   2 Type O   : 11s6p2d contracted to 5s3p2d pattern {62111/411/11}
 Group   3 Type N   : 11s6p1d contracted to 5s3p1d pattern {62111/411/1}
 Group   4 Type C   : 11s6p1d contracted to 5s3p1d pattern {62111/411/1}
 Group   5 Type H   : 5s contracted to 3s pattern {311}

Atom   0S    basis set group =>   1
Atom   1O    basis set group =>   2
Atom   2N    basis set group =>   3
Atom   3N    basis set group =>   3
Atom   4N    basis set group =>   3
Atom   5N    basis set group =>   3
Atom   6C    basis set group =>   4
Atom   7C    basis set group =>   4
Atom   8C    basis set group =>   4
Atom   9C    basis set group =>   4
Atom  10C    basis set group =>   4
Atom  11C    basis set group =>   4
Atom  12C    basis set group =>   4
Atom  13C    basis set group =>   4
Atom  14C    basis set group =>   4
Atom  15C    basis set group =>   4
Atom  16C    basis set group =>   4
Atom  17C    basis set group =>   4
Atom  18H    basis set group =>   5
Atom  19H    basis set group =>   5
Atom  20H    basis set group =>   5
Atom  21H    basis set group =>   5
Atom  22H    basis set group =>   5
Atom  23H    basis set group =>   5
Atom  24H    basis set group =>   5
Atom  25H    basis set group =>   5
Atom  26H    basis set group =>   5
Atom  27H    basis set group =>   5
Atom  28H    basis set group =>   5
Atom  29H    basis set group =>   5
Atom  30H    basis set group =>   5
Atom  31H    basis set group =>   5
Atom  32H    basis set group =>   5
Atom  33H    basis set group =>   5
Atom  34H    basis set group =>   5
---------------------------------
AUXILIARY/J BASIS SET INFORMATION
---------------------------------
There are 5 groups of distinct atoms

 Group   1 Type S   : 14s5p5d2f1g contracted to 8s4p3d1f1g pattern {71111111/2111/311/2/1}
 Group   2 Type O   : 8s3p3d contracted to 6s3p3d pattern {311111/111/111}
 Group   3 Type N   : 8s3p3d contracted to 6s3p3d pattern {311111/111/111}
 Group   4 Type C   : 8s3p3d contracted to 6s3p3d pattern {311111/111/111}
 Group   5 Type H   : 5s2p contracted to 3s1p pattern {311/2}

Atom   0S    basis set group =>   1
Atom   1O    basis set group =>   2
Atom   2N    basis set group =>   3
Atom   3N    basis set group =>   3
Atom   4N    basis set group =>   3
Atom   5N    basis set group =>   3
Atom   6C    basis set group =>   4
Atom   7C    basis set group =>   4
Atom   8C    basis set group =>   4
Atom   9C    basis set group =>   4
Atom  10C    basis set group =>   4
Atom  11C    basis set group =>   4
Atom  12C    basis set group =>   4
Atom  13C    basis set group =>   4
Atom  14C    basis set group =>   4
Atom  15C    basis set group =>   4
Atom  16C    basis set group =>   4
Atom  17C    basis set group =>   4
Atom  18H    basis set group =>   5
Atom  19H    basis set group =>   5
Atom  20H    basis set group =>   5
Atom  21H    basis set group =>   5
Atom  22H    basis set group =>   5
Atom  23H    basis set group =>   5
Atom  24H    basis set group =>   5
Atom  25H    basis set group =>   5
Atom  26H    basis set group =>   5
Atom  27H    basis set group =>   5
Atom  28H    basis set group =>   5
Atom  29H    basis set group =>   5
Atom  30H    basis set group =>   5
Atom  31H    basis set group =>   5
Atom  32H    basis set group =>   5
Atom  33H    basis set group =>   5
Atom  34H    basis set group =>   5


           ************************************************************
           *        Program running with 16 parallel MPI-processes    *
           *              working on a common directory               *
           ************************************************************
------------------------------------------------------------------------------
                             ORCA STARTUP CALCULATIONS
                           -- RI-GTO INTEGRALS CHOSEN --
------------------------------------------------------------------------------
------------------------------------------------------------------------------
                   ___                                                        
                  /   \      - P O W E R E D   B Y -                         
                 /     \                                                     
                 |  |  |   _    _      __       _____    __    __             
                 |  |  |  | |  | |    /  \     |  _  \  |  |  /  |          
                  \  \/   | |  | |   /    \    | | | |  |  | /  /          
                 / \  \   | |__| |  /  /\  \   | |_| |  |  |/  /          
                |  |  |   |  __  | /  /__\  \  |    /   |      \           
                |  |  |   | |  | | |   __   |  |    \   |  |\   \          
                \     /   | |  | | |  |  |  |  | |\  \  |  | \   \       
                 \___/    |_|  |_| |__|  |__|  |_| \__\ |__|  \__/        
                                                                              
                      - O R C A' S   B I G   F R I E N D -                    
                                      &                                       
                       - I N T E G R A L  F E E D E R -                       
                                                                              
 v1 FN, 2020, v2 2021, v3 2022-2024                                           
------------------------------------------------------------------------------


----------------------
SHARK INTEGRAL PACKAGE
----------------------

Number of atoms                             ...     35
Number of basis functions                   ...    401
Number of shells                            ...    215
Maximum angular momentum                    ...      2
Integral batch strategy                     ... SHARK/LIBINT Hybrid
RI-J (if used) integral strategy            ... SPLIT-RIJ (Revised 2003 algorithm where possible)
Printlevel                                  ...      1
Contraction scheme used                     ... SEGMENTED contraction
Prescreening option                         ... SCHWARTZ
   Thresh                                   ... 2.500e-11
   Tcut                                     ... 2.500e-12
   Tpresel                                  ... 2.500e-12 
Coulomb Range Separation                    ... NOT USED
Exchange Range Separation                   ... NOT USED
Multipole approximations                    ... NOT USED
Finite Nucleus Model                        ... NOT USED
CABS basis                                  ... NOT available
Auxiliary Coulomb fitting basis             ... AVAILABLE
   # of basis functions in Aux-J            ...    663
   # of shells in Aux-J                     ...    289
   Maximum angular momentum in Aux-J        ...      4
Auxiliary J/K fitting basis                 ... NOT available
Auxiliary Correlation fitting basis         ... NOT available
Auxiliary 'external' fitting basis          ... NOT available

Checking pre-screening integrals            ... done (  0.0 sec) Dimension = 215
Check shell pair data                       ... done (  0.0 sec)
Shell pair information
Shell pair cut-off parameter TPreSel        ...   2.5e-12
Total number of shell pairs                 ...     23220
Shell pairs after pre-screening             ...     18273
Total number of primitive shell pairs       ...     87201
Primitive shell pairs kept                  ...     43747
          la=0 lb=0:   7422 shell pairs
          la=1 lb=0:   6484 shell pairs
          la=1 lb=1:   1400 shell pairs
          la=2 lb=0:   1945 shell pairs
          la=2 lb=1:    881 shell pairs
          la=2 lb=2:    141 shell pairs

Calculating one electron integrals          ... done (  0.0 sec)
Calculating RI/J V-Matrix + Cholesky decomp.... done (  0.0 sec)
Calculating Nuclear repulsion               ... done (  0.0 sec) ENN=   1499.923497063776 Eh

Diagonalization of the overlap matrix:
Smallest eigenvalue                        ... 5.209e-05
Time for diagonalization                   ...    0.013 sec
Threshold for overlap eigenvalues          ... 1.000e-07
Number of eigenvalues below threshold      ... 0
Time for construction of square roots      ...    0.007 sec
Total time needed                          ...    0.021 sec

-------------------
DFT GRID GENERATION
-------------------

General Integration Accuracy     IntAcc      ... 4.959
Radial Grid Type                 RadialGrid  ... OptM3 with GC (2021)
Angular Grid (max. ang.)         AngularGrid ... 6 (Lebedev-590)
Angular grid pruning method      GridPruning ... 4 (adaptive)
Weight generation scheme         WeightScheme... mBecke (2022)
Basis function cutoff            BFCut       ... 1.0000e-11
Integration weight cutoff        WCut        ... 1.0000e-14
Partially contracted basis set               ... off
Rotationally invariant grid construction     ... off
Angular grids for H and He will be reduced by one unit
Diffuse basis detected: some atoms will have their outermost
                        angular grid increased by 1.

Total number of grid points                  ...   402461
Total number of batches                      ...     6307
Average number of points per batch           ...       63
Average number of grid points per atom       ...    11499
Initializing property integral containers    ... done (  0.0 sec)

SHARK setup successfully completed in   3.1 seconds

Maximum memory used throughout the entire STARTUP-calculation: 94.4 MB


           ************************************************************
           *        Program running with 16 parallel MPI-processes    *
           *              working on a common directory               *
           ************************************************************
-------------------------------------------------------------------------------
                                 ORCA GUESS
                   Start orbitals & Density for SCF / CASSCF
-------------------------------------------------------------------------------

------------
SCF SETTINGS
------------
Hamiltonian:
 Density Functional     Method          .... DFT(GTOs)
 Exchange Functional    Exchange        .... B973C
 Correlation Functional Correlation     .... B973C
 Gradients option       PostSCFGGA      .... off
 RI-approximation to the Coulomb term is turned on
   Number of AuxJ basis functions       .... 663


General Settings:
 Integral files         IntName         .... m1_01_Vitamin_B1-GFN1_000-B97-3C-TZ
 Hartree-Fock type      HFTyp           .... RHF
 Total Charge           Charge          ....    1
 Multiplicity           Mult            ....    1
 Number of Electrons    NEL             ....  140
 Basis Dimension        Dim             ....  401
 Nuclear Repulsion      ENuc            ....   1499.9234970638 Eh

Convergence Acceleration:
 AO-DIIS                CNVDIIS         .... on
   Start iteration      DIISMaxIt       ....    12
   Startup error        DIISStart       ....  0.200000
   # of expansion vecs  DIISMaxEq       ....     5
   Bias factor          DIISBfac        ....   1.050
   Max. coefficient     DIISMaxC        ....  10.000
 MO-DIIS                CNVKDIIS        .... off
 Trust-Rad. Augm. Hess. CNVTRAH         .... off
 SOSCF                  CNVSOSCF        .... on
   Start iteration      SOSCFMaxIt      ....   150
   Startup grad/error   SOSCFStart      ....  0.003300
   Hessian update       SOSCFHessUp     .... L-BFGS
 Level Shifting         CNVShift        .... on
   Level shift para.    LevelShift      ....    0.2500
   Turn off err/grad.   ShiftErr        ....    0.0010
 Zerner damping         CNVZerner       .... off
 Static damping         CNVDamp         .... on
   Fraction old density DampFac         ....    0.7000
   Max. Damping (<1)    DampMax         ....    0.9800
   Min. Damping (>=0)   DampMin         ....    0.0000
   Turn off err/grad.   DampErr         ....    0.1000

SCF Procedure:
 Maximum # iterations   MaxIter         ....   800
 SCF integral mode      SCFMode         .... Direct
   Integral package                     .... SHARK and LIBINT hybrid scheme
 Reset frequency        DirectResetFreq ....    20
 Integral Threshold     Thresh          ....  2.500e-11 Eh
 Primitive CutOff       TCut            ....  2.500e-12 Eh

Convergence Tolerance:
 Convergence Check Mode ConvCheckMode   .... Total+1el-Energy
 Convergence forced     ConvForced      .... 0
 Energy Change          TolE            ....  1.000e-08 Eh
 1-El. energy change                    ....  1.000e-05 Eh
 Orbital Gradient       TolG            ....  1.000e-05
 Orbital Rotation angle TolX            ....  1.000e-05
 DIIS Error             TolErr          ....  5.000e-07

--------------------------------
INITIAL GUESS: MINIMAL BASIS EHT
--------------------------------
The minimal basis has 111 functions
EHT matrix was diagonalized
Basis set overlap was calculated now projecting the orbitals
Using GuessMode=FMatrix for the initial guess
C*T matrix was formed
Effective Fockian was calculated
Effective Fockian was diagonalized
Initial density was built
                      ------------------
                      INITIAL GUESS DONE
                      ------------------
             **** ENERGY FILE WAS UPDATED (m1_01_Vitamin_B1-GFN1_000-B97-3C-TZ.en.tmp) ****
Finished Guess after   0.2 sec
Maximum memory used throughout the entire GUESS-calculation: 33.0 MB


           ************************************************************
           *        Program running with 16 parallel MPI-processes    *
           *              working on a common directory               *
           ************************************************************

-------------------------------------------------------------------------------------------
                                      ORCA LEAN-SCF
                              memory conserving SCF solver
-------------------------------------------------------------------------------------------

----------------------------------------D-I-I-S--------------------------------------------
Iteration    Energy (Eh)           Delta-E    RMSDP     MaxDP     DIISErr   Damp  Time(sec)
-------------------------------------------------------------------------------------------
               ***  Starting incremental Fock matrix formation  ***
    1    -1156.3789604254654932     0.00e+00  4.72e-03  1.58e-01  8.24e-01  0.700   0.6
Warning: op=0 Small HOMO/LUMO gap (  -0.000) - skipping pre-diagonalization
         Will do a full diagonalization
    2    -1157.3396960217257856    -9.61e-01  4.43e-03  2.46e-01  5.62e-01  0.700   0.6
    3    -1157.8704522810396611    -5.31e-01  2.50e-03  8.52e-02  3.81e-01  0.700   0.6
    4    -1158.2332172489047935    -3.63e-01  1.64e-03  5.52e-02  2.57e-01  0.700   0.6
                               ***Turning on AO-DIIS***
    5    -1158.4940385941038130    -2.61e-01  1.30e-03  4.84e-02  1.73e-01  0.700   0.6
    6    -1158.6764751844054899    -1.82e-01  9.58e-04  3.94e-02  1.21e-01  0.700   0.6
    7    -1158.8048050603313186    -1.28e-01  7.36e-04  2.85e-02  8.51e-02  0.700   0.6
    8    -1158.8950463132698587    -9.02e-02  1.88e-03  8.27e-02  6.01e-02  0.000   0.6
    9    -1159.1057002322602330    -2.11e-01  2.33e-04  1.14e-02  5.37e-03  0.000   0.6
   10    -1159.1061362249063222    -4.36e-04  1.19e-04  7.19e-03  4.06e-03  0.000   0.5
                              *** Initializing SOSCF ***
---------------------------------------S-O-S-C-F--------------------------------------
Iteration    Energy (Eh)           Delta-E    RMSDP     MaxDP     MaxGrad    Time(sec)
--------------------------------------------------------------------------------------
   11    -1159.1063523879972763    -2.16e-04  8.80e-05  4.95e-03  1.04e-03     0.6
               *** Restarting incremental Fock matrix formation ***
   12    -1159.1064254809082286    -7.31e-05  1.89e-04  1.14e-02  1.82e-03     0.6
   13    -1159.1065047210101966    -7.92e-05  1.21e-04  4.95e-03  4.08e-04     0.5
   14    -1159.1064841159943626     2.06e-05  6.68e-05  3.40e-03  9.55e-04     0.5
   15    -1159.1065141125138780    -3.00e-05  1.76e-05  1.00e-03  1.21e-04     0.5
   16    -1159.1065123011564992     1.81e-06  1.29e-05  8.54e-04  2.01e-04     0.5
   17    -1159.1065145503828262    -2.25e-06  6.35e-06  3.76e-04  3.59e-05     0.5
   18    -1159.1065144114656960     1.39e-07  4.41e-06  3.24e-04  6.85e-05     0.5
   19    -1159.1065145917953032    -1.80e-07  2.26e-06  1.57e-04  2.98e-06     0.5
   20    -1159.1065145562354246     3.56e-08  1.57e-06  2.03e-04  6.60e-06     0.5
   21    -1159.1065145791451414    -2.29e-08  2.19e-06  1.25e-04  1.13e-06     0.5
                  *** Gradient check signals convergence ***

               *****************************************************
               *                     SUCCESS                       *
               *           SCF CONVERGED AFTER  21 CYCLES          *
               *****************************************************

             **** ENERGY FILE WAS UPDATED (m1_01_Vitamin_B1-GFN1_000-B97-3C-TZ.en.tmp) ****

----------------
TOTAL SCF ENERGY
----------------

Total Energy       :      -1159.10651457914514 Eh          -31540.89177 eV

Components:
Nuclear Repulsion  :       1499.92349706377649 Eh           40814.99335 eV
Electronic Energy  :      -2659.03001164292164 Eh          -72355.88512 eV
One Electron Energy:      -4544.75861229856764 Eh         -123669.16906 eV
Two Electron Energy:       1885.72860065564601 Eh           51313.28394 eV

Virial components:
Potential Energy   :      -2314.73940206430007 Eh          -62987.26134 eV
Kinetic Energy     :       1155.63288748515492 Eh           31446.36957 eV
Virial Ratio       :          2.00300582229150

DFT components:
N(Alpha)           :       70.000000205030 electrons
N(Beta)            :       70.000000205030 electrons
N(Total)           :      140.000000410059 electrons
E(XC)              :     -132.604460153802 Eh       

---------------
SCF CONVERGENCE
---------------

  Last Energy change         ...    2.2910e-08  Tolerance :   1.0000e-08
  Last MAX-Density change    ...    1.2511e-04  Tolerance :   1.0000e-07
  Last RMS-Density change    ...    2.1938e-06  Tolerance :   5.0000e-09
  Last DIIS Error            ...    1.0359e-03  Tolerance :   5.0000e-07
  Last Orbital Gradient      ...    1.1325e-06  Tolerance :   1.0000e-05
  Last Orbital Rotation      ...    4.6121e-06  Tolerance :   1.0000e-05


----------------
ORBITAL ENERGIES
----------------

  NO   OCC          E(Eh)            E(eV) 
   0   2.0000     -88.241811     -2401.1818 
   1   2.0000     -18.869734      -513.4716 
   2   2.0000     -14.243213      -387.5775 
   3   2.0000     -14.125742      -384.3810 
   4   2.0000     -14.088110      -383.3570 
   5   2.0000     -14.082637      -383.2080 
   6   2.0000     -10.138131      -275.8726 
   7   2.0000     -10.104871      -274.9675 
   8   2.0000     -10.103445      -274.9287 
   9   2.0000     -10.094817      -274.6939 
  10   2.0000     -10.090873      -274.5866 
  11   2.0000     -10.069779      -274.0126 
  12   2.0000     -10.065597      -273.8988 
  13   2.0000     -10.053299      -273.5642 
  14   2.0000     -10.047179      -273.3977 
  15   2.0000     -10.033763      -273.0326 
  16   2.0000     -10.029211      -272.9087 
  17   2.0000      -9.971962      -271.3509 
  18   2.0000      -7.932452      -215.8530 
  19   2.0000      -5.962527      -162.2486 
  20   2.0000      -5.956950      -162.0969 
  21   2.0000      -5.955099      -162.0465 
  22   2.0000      -1.117230       -30.4014 
  23   2.0000      -1.069863       -29.1125 
  24   2.0000      -1.032495       -28.0956 
  25   2.0000      -0.976522       -26.5725 
  26   2.0000      -0.953466       -25.9451 
  27   2.0000      -0.909764       -24.7559 
  28   2.0000      -0.895800       -24.3760 
  29   2.0000      -0.869685       -23.6653 
  30   2.0000      -0.836725       -22.7684 
  31   2.0000      -0.807727       -21.9794 
  32   2.0000      -0.781714       -21.2715 
  33   2.0000      -0.752717       -20.4825 
  34   2.0000      -0.735933       -20.0258 
  35   2.0000      -0.712207       -19.3801 
  36   2.0000      -0.696265       -18.9463 
  37   2.0000      -0.679039       -18.4776 
  38   2.0000      -0.666208       -18.1284 
  39   2.0000      -0.637144       -17.3376 
  40   2.0000      -0.624645       -16.9975 
  41   2.0000      -0.605279       -16.4705 
  42   2.0000      -0.603269       -16.4158 
  43   2.0000      -0.580265       -15.7898 
  44   2.0000      -0.577345       -15.7104 
  45   2.0000      -0.560115       -15.2415 
  46   2.0000      -0.550376       -14.9765 
  47   2.0000      -0.547449       -14.8968 
  48   2.0000      -0.532049       -14.4778 
  49   2.0000      -0.522402       -14.2153 
  50   2.0000      -0.512531       -13.9467 
  51   2.0000      -0.509493       -13.8640 
  52   2.0000      -0.502453       -13.6724 
  53   2.0000      -0.499175       -13.5832 
  54   2.0000      -0.498997       -13.5784 
  55   2.0000      -0.493449       -13.4274 
  56   2.0000      -0.482882       -13.1399 
  57   2.0000      -0.465845       -12.6763 
  58   2.0000      -0.460925       -12.5424 
  59   2.0000      -0.454101       -12.3567 
  60   2.0000      -0.435408       -11.8481 
  61   2.0000      -0.432169       -11.7599 
  62   2.0000      -0.421429       -11.4677 
  63   2.0000      -0.418208       -11.3800 
  64   2.0000      -0.377731       -10.2786 
  65   2.0000      -0.367404        -9.9976 
  66   2.0000      -0.361326        -9.8322 
  67   2.0000      -0.353534        -9.6202 
  68   2.0000      -0.328363        -8.9352 
  69   2.0000      -0.312178        -8.4948 
  70   0.0000      -0.234865        -6.3910 
  71   0.0000      -0.177406        -4.8275 
  72   0.0000      -0.170036        -4.6269 
  73   0.0000      -0.167661        -4.5623 
  74   0.0000      -0.154037        -4.1916 
  75   0.0000      -0.115601        -3.1457 
  76   0.0000      -0.104874        -2.8538 
  77   0.0000      -0.095253        -2.5920 
  78   0.0000      -0.082858        -2.2547 
  79   0.0000      -0.072627        -1.9763 
  80   0.0000      -0.069121        -1.8809 
*Only the first 10 virtual orbitals were printed.

                    ********************************
                    * MULLIKEN POPULATION ANALYSIS *
                    ********************************

-----------------------
MULLIKEN ATOMIC CHARGES
-----------------------
   0 S :    0.286985
   1 O :   -0.539356
   2 N :    0.111623
   3 N :   -0.154708
   4 N :   -0.084425
   5 N :   -0.611410
   6 C :   -0.102354
   7 C :   -0.699704
   8 C :    0.033705
   9 C :   -0.402098
  10 C :    0.173627
  11 C :   -0.140771
  12 C :   -0.447773
  13 C :   -0.111212
  14 C :    0.152154
  15 C :   -0.145542
  16 C :    0.097052
  17 C :   -0.549370
  18 H :    0.269797
  19 H :    0.267452
  20 H :    0.240489
  21 H :    0.210945
  22 H :    0.269110
  23 H :    0.190134
  24 H :    0.222133
  25 H :    0.208896
  26 H :    0.197867
  27 H :    0.155274
  28 H :    0.158634
  29 H :    0.365610
  30 H :    0.342317
  31 H :    0.443748
  32 H :    0.196573
  33 H :    0.203561
  34 H :    0.191036
Sum of atomic charges:    1.0000000

--------------------------------
MULLIKEN REDUCED ORBITAL CHARGES
--------------------------------
  0 S s       :     5.886221  s :     5.886221
      pz      :     3.364633  p :     9.705516
      px      :     3.356850
      py      :     2.984033
      dz2     :     0.019303  d :     0.121278
      dxz     :     0.016587
      dyz     :     0.033537
      dx2y2   :     0.017544
      dxy     :     0.034308

  1 O s       :     3.811547  s :     3.811547
      pz      :     1.232433  p :     4.710153
      px      :     1.625230
      py      :     1.852490
      dz2     :    -0.001487  d :     0.017655
      dxz     :     0.009688
      dyz     :     0.002851
      dx2y2   :     0.002400
      dxy     :     0.004204

  2 N s       :     3.270664  s :     3.270664
      pz      :     1.206837  p :     3.558240
      px      :     1.236930
      py      :     1.114473
      dz2     :     0.013152  d :     0.059472
      dxz     :     0.009486
      dyz     :     0.012368
      dx2y2   :     0.011426
      dxy     :     0.013041

  3 N s       :     3.480801  s :     3.480801
      pz      :     1.291725  p :     3.628774
      px      :     1.149373
      py      :     1.187676
      dz2     :     0.013474  d :     0.045133
      dxz     :     0.010705
      dyz     :     0.007052
      dx2y2   :     0.006993
      dxy     :     0.006909

  4 N s       :     3.485642  s :     3.485642
      pz      :     0.949196  p :     3.553178
      px      :     1.395087
      py      :     1.208895
      dz2     :     0.008392  d :     0.045605
      dxz     :     0.016941
      dyz     :     0.008274
      dx2y2   :     0.006164
      dxy     :     0.005834

  5 N s       :     3.456534  s :     3.456534
      pz      :     1.269793  p :     4.120167
      px      :     1.183214
      py      :     1.667160
      dz2     :     0.007735  d :     0.034709
      dxz     :     0.012334
      dyz     :     0.002017
      dx2y2   :     0.005246
      dxy     :     0.007377

  6 C s       :     3.187051  s :     3.187051
      pz      :     1.003721  p :     2.855537
      px      :     0.982081
      py      :     0.869735
      dz2     :     0.012015  d :     0.059765
      dxz     :     0.009636
      dyz     :     0.012603
      dx2y2   :     0.015361
      dxy     :     0.010151

  7 C s       :     3.492615  s :     3.492615
      pz      :     1.032711  p :     3.152369
      px      :     0.965821
      py      :     1.153837
      dz2     :     0.010198  d :     0.054720
      dxz     :     0.010007
      dyz     :     0.015235
      dx2y2   :     0.007463
      dxy     :     0.011817

  8 C s       :     2.995235  s :     2.995235
      pz      :     1.041583  p :     2.924681
      px      :     1.030736
      py      :     0.852362
      dz2     :     0.007431  d :     0.046378
      dxz     :     0.006590
      dyz     :     0.012128
      dx2y2   :     0.009331
      dxy     :     0.010898

  9 C s       :     3.213001  s :     3.213001
      pz      :     1.107194  p :     3.145242
      px      :     1.097302
      py      :     0.940747
      dz2     :     0.009268  d :     0.043855
      dxz     :     0.010088
      dyz     :     0.004969
      dx2y2   :     0.006238
      dxy     :     0.013293

 10 C s       :     3.063124  s :     3.063124
      pz      :     0.732213  p :     2.718894
      px      :     0.885358
      py      :     1.101324
      dz2     :     0.012478  d :     0.044354
      dxz     :     0.013435
      dyz     :     0.007297
      dx2y2   :     0.005331
      dxy     :     0.005813

 11 C s       :     3.184626  s :     3.184626
      pz      :     0.945578  p :     2.903780
      px      :     0.934998
      py      :     1.023204
      dz2     :     0.012389  d :     0.052366
      dxz     :     0.008686
      dyz     :     0.011621
      dx2y2   :     0.010771
      dxy     :     0.008898

 12 C s       :     3.182049  s :     3.182049
      pz      :     1.013978  p :     3.228285
      px      :     1.087816
      py      :     1.126492
      dz2     :     0.009968  d :     0.037438
      dxz     :     0.006536
      dyz     :     0.006341
      dx2y2   :     0.010805
      dxy     :     0.003787

 13 C s       :     3.225584  s :     3.225584
      pz      :     0.746368  p :     2.820691
      px      :     0.961290
      py      :     1.113033
      dz2     :     0.015324  d :     0.064937
      dxz     :     0.017192
      dyz     :     0.010975
      dx2y2   :     0.007252
      dxy     :     0.014194

 14 C s       :     3.041730  s :     3.041730
      pz      :     0.979553  p :     2.722689
      px      :     0.857435
      py      :     0.885701
      dz2     :     0.022322  d :     0.083427
      dxz     :     0.020732
      dyz     :     0.012187
      dx2y2   :     0.014201
      dxy     :     0.013986

 15 C s       :     3.221934  s :     3.221934
      pz      :     1.014298  p :     2.863315
      px      :     0.955807
      py      :     0.893210
      dz2     :     0.017196  d :     0.060294
      dxz     :     0.019216
      dyz     :     0.008968
      dx2y2   :     0.007462
      dxy     :     0.007451

 16 C s       :     3.153315  s :     3.153315
      pz      :     0.904167  p :     2.666480
      px      :     0.884876
      py      :     0.877437
      dz2     :     0.021343  d :     0.083153
      dxz     :     0.025459
      dyz     :     0.012698
      dx2y2   :     0.012117
      dxy     :     0.011535

 17 C s       :     3.306171  s :     3.306171
      pz      :     0.969814  p :     3.207268
      px      :     1.100587
      py      :     1.136867
      dz2     :     0.009079  d :     0.035931
      dxz     :     0.007183
      dyz     :     0.006535
      dx2y2   :     0.010092
      dxy     :     0.003041

 18 H s       :     0.730203  s :     0.730203

 19 H s       :     0.732548  s :     0.732548

 20 H s       :     0.759511  s :     0.759511

 21 H s       :     0.789055  s :     0.789055

 22 H s       :     0.730890  s :     0.730890

 23 H s       :     0.809866  s :     0.809866

 24 H s       :     0.777867  s :     0.777867

 25 H s       :     0.791104  s :     0.791104

 26 H s       :     0.802133  s :     0.802133

 27 H s       :     0.844726  s :     0.844726

 28 H s       :     0.841366  s :     0.841366

 29 H s       :     0.634390  s :     0.634390

 30 H s       :     0.657683  s :     0.657683

 31 H s       :     0.556252  s :     0.556252

 32 H s       :     0.803427  s :     0.803427

 33 H s       :     0.796439  s :     0.796439

 34 H s       :     0.808964  s :     0.808964



                     *******************************
                     * LOEWDIN POPULATION ANALYSIS *
                     *******************************

----------------------
LOEWDIN ATOMIC CHARGES
----------------------
   0 S :    0.736239
   1 O :   -0.770798
   2 N :   -0.039923
   3 N :   -0.188383
   4 N :   -0.185940
   5 N :   -0.419408
   6 C :    0.004602
   7 C :   -0.152231
   8 C :   -0.236814
   9 C :   -0.257672
  10 C :   -0.163193
  11 C :   -0.264020
  12 C :   -0.382685
  13 C :    0.039198
  14 C :    0.090765
  15 C :   -0.026752
  16 C :    0.082387
  17 C :   -0.410273
  18 H :    0.190738
  19 H :    0.182306
  20 H :    0.193586
  21 H :    0.184966
  22 H :    0.204247
  23 H :    0.173922
  24 H :    0.205788
  25 H :    0.193588
  26 H :    0.181378
  27 H :    0.169421
  28 H :    0.163048
  29 H :    0.300477
  30 H :    0.283270
  31 H :    0.375230
  32 H :    0.174843
  33 H :    0.188898
  34 H :    0.179196

-------------------------------
LOEWDIN REDUCED ORBITAL CHARGES
-------------------------------
  0 S s       :     5.349262  s :     5.349262
      pz      :     3.377822  p :     9.776280
      px      :     3.378371
      py      :     3.020087
      dz2     :     0.020365  d :     0.138219
      dxz     :     0.017766
      dyz     :     0.038981
      dx2y2   :     0.019739
      dxy     :     0.041368

  1 O s       :     3.549477  s :     3.549477
      pz      :     1.328892  p :     4.864501
      px      :     1.669675
      py      :     1.865934
      dz2     :     0.090749  d :     0.356820
      dxz     :     0.113421
      dyz     :     0.071721
      dx2y2   :     0.034767
      dxy     :     0.046162

  2 N s       :     3.077471  s :     3.077471
      pz      :     1.282426  p :     3.844838
      px      :     1.311675
      py      :     1.250738
      dz2     :     0.025110  d :     0.117613
      dxz     :     0.019801
      dyz     :     0.024840
      dx2y2   :     0.022256
      dxy     :     0.025606

  3 N s       :     3.211895  s :     3.211895
      pz      :     1.418353  p :     3.893446
      px      :     1.262566
      py      :     1.212527
      dz2     :     0.024564  d :     0.083042
      dxz     :     0.020721
      dyz     :     0.010486
      dx2y2   :     0.013306
      dxy     :     0.013963

  4 N s       :     3.222843  s :     3.222843
      pz      :     1.169246  p :     3.878128
      px      :     1.474161
      py      :     1.234720
      dz2     :     0.021050  d :     0.084969
      dxz     :     0.032609
      dyz     :     0.016531
      dx2y2   :     0.007383
      dxy     :     0.007396

  5 N s       :     3.203512  s :     3.203512
      pz      :     1.272071  p :     4.159489
      px      :     1.235918
      py      :     1.651500
      dz2     :     0.012104  d :     0.056408
      dxz     :     0.020828
      dyz     :     0.002446
      dx2y2   :     0.008566
      dxy     :     0.012464

  6 C s       :     2.841584  s :     2.841584
      pz      :     1.055921  p :     3.027532
      px      :     1.033341
      py      :     0.938269
      dz2     :     0.023332  d :     0.126282
      dxz     :     0.020387
      dyz     :     0.027115
      dx2y2   :     0.033353
      dxy     :     0.022094

  7 C s       :     2.912627  s :     2.912627
      pz      :     1.053598  p :     3.139558
      px      :     1.025887
      py      :     1.060073
      dz2     :     0.018749  d :     0.100045
      dxz     :     0.019696
      dyz     :     0.027499
      dx2y2   :     0.012604
      dxy     :     0.021496

  8 C s       :     2.926882  s :     2.926882
      pz      :     1.057737  p :     3.213528
      px      :     1.071937
      py      :     1.083855
      dz2     :     0.015248  d :     0.096404
      dxz     :     0.014463
      dyz     :     0.026427
      dx2y2   :     0.018075
      dxy     :     0.022191

  9 C s       :     2.924343  s :     2.924343
      pz      :     1.098392  p :     3.255697
      px      :     1.097385
      py      :     1.059919
      dz2     :     0.015353  d :     0.077632
      dxz     :     0.017778
      dyz     :     0.008493
      dx2y2   :     0.012476
      dxy     :     0.023532

 10 C s       :     2.858754  s :     2.858754
      pz      :     1.018454  p :     3.210223
      px      :     1.093952
      py      :     1.097817
      dz2     :     0.028448  d :     0.094215
      dxz     :     0.029168
      dyz     :     0.013946
      dx2y2   :     0.010693
      dxy     :     0.011961

 11 C s       :     2.962865  s :     2.962865
      pz      :     1.024637  p :     3.192114
      px      :     1.049123
      py      :     1.118355
      dz2     :     0.024570  d :     0.109042
      dxz     :     0.021519
      dyz     :     0.023826
      dx2y2   :     0.019157
      dxy     :     0.019970

 12 C s       :     2.965006  s :     2.965006
      pz      :     1.084682  p :     3.356280
      px      :     1.127486
      py      :     1.144112
      dz2     :     0.016963  d :     0.061399
      dxz     :     0.011172
      dyz     :     0.010730
      dx2y2   :     0.016667
      dxy     :     0.005866

 13 C s       :     2.870987  s :     2.870987
      pz      :     0.874635  p :     2.961057
      px      :     1.011631
      py      :     1.074790
      dz2     :     0.030716  d :     0.128759
      dxz     :     0.039794
      dyz     :     0.021445
      dx2y2   :     0.012145
      dxy     :     0.024659

 14 C s       :     2.811148  s :     2.811148
      pz      :     1.056152  p :     2.920630
      px      :     0.962257
      py      :     0.902220
      dz2     :     0.052995  d :     0.177458
      dxz     :     0.043962
      dyz     :     0.023225
      dx2y2   :     0.027730
      dxy     :     0.029546

 15 C s       :     2.883730  s :     2.883730
      pz      :     1.055896  p :     3.020243
      px      :     1.038910
      py      :     0.925437
      dz2     :     0.034794  d :     0.122779
      dxz     :     0.040284
      dyz     :     0.016690
      dx2y2   :     0.015221
      dxy     :     0.015791

 16 C s       :     2.830436  s :     2.830436
      pz      :     1.047675  p :     2.910332
      px      :     0.990244
      py      :     0.872413
      dz2     :     0.044389  d :     0.176845
      dxz     :     0.057362
      dyz     :     0.024472
      dx2y2   :     0.024716
      dxy     :     0.025907

 17 C s       :     2.983639  s :     2.983639
      pz      :     1.072896  p :     3.368550
      px      :     1.141277
      py      :     1.154377
      dz2     :     0.015628  d :     0.058085
      dxz     :     0.012364
      dyz     :     0.010940
      dx2y2   :     0.015000
      dxy     :     0.004153

 18 H s       :     0.809262  s :     0.809262

 19 H s       :     0.817694  s :     0.817694

 20 H s       :     0.806414  s :     0.806414

 21 H s       :     0.815034  s :     0.815034

 22 H s       :     0.795753  s :     0.795753

 23 H s       :     0.826078  s :     0.826078

 24 H s       :     0.794212  s :     0.794212

 25 H s       :     0.806412  s :     0.806412

 26 H s       :     0.818622  s :     0.818622

 27 H s       :     0.830579  s :     0.830579

 28 H s       :     0.836952  s :     0.836952

 29 H s       :     0.699523  s :     0.699523

 30 H s       :     0.716730  s :     0.716730

 31 H s       :     0.624770  s :     0.624770

 32 H s       :     0.825157  s :     0.825157

 33 H s       :     0.811102  s :     0.811102

 34 H s       :     0.820804  s :     0.820804



                      *****************************
                      * MAYER POPULATION ANALYSIS *
                      *****************************

  NA   - Mulliken gross atomic population
  ZA   - Total nuclear charge
  QA   - Mulliken gross atomic charge
  VA   - Mayer's total valence
  BVA  - Mayer's bonded valence
  FA   - Mayer's free valence

  ATOM       NA         ZA         QA         VA         BVA        FA
  0 S     15.7130    16.0000     0.2870     2.6783     2.6783    -0.0000
  1 O      8.5394     8.0000    -0.5394     1.7621     1.7621     0.0000
  2 N      6.8884     7.0000     0.1116     3.3098     3.3098    -0.0000
  3 N      7.1547     7.0000    -0.1547     3.1647     3.1647     0.0000
  4 N      7.0844     7.0000    -0.0844     3.1041     3.1041     0.0000
  5 N      7.6114     7.0000    -0.6114     2.9708     2.9708    -0.0000
  6 C      6.1024     6.0000    -0.1024     4.2771     4.2771     0.0000
  7 C      6.6997     6.0000    -0.6997     3.6803     3.6803    -0.0000
  8 C      5.9663     6.0000     0.0337     3.5052     3.5052     0.0000
  9 C      6.4021     6.0000    -0.4021     3.8026     3.8026     0.0000
 10 C      5.8264     6.0000     0.1736     3.1547     3.1547    -0.0000
 11 C      6.1408     6.0000    -0.1408     3.8439     3.8439     0.0000
 12 C      6.4478     6.0000    -0.4478     3.9130     3.9130     0.0000
 13 C      6.1112     6.0000    -0.1112     3.7043     3.7043    -0.0000
 14 C      5.8478     6.0000     0.1522     4.0836     4.0836    -0.0000
 15 C      6.1455     6.0000    -0.1455     4.0252     4.0252    -0.0000
 16 C      5.9029     6.0000     0.0971     3.9629     3.9629     0.0000
 17 C      6.5494     6.0000    -0.5494     3.7093     3.7093     0.0000
 18 H      0.7302     1.0000     0.2698     0.8982     0.8982    -0.0000
 19 H      0.7325     1.0000     0.2675     0.9014     0.9014     0.0000
 20 H      0.7595     1.0000     0.2405     0.9208     0.9208     0.0000
 21 H      0.7891     1.0000     0.2109     0.9469     0.9469     0.0000
 22 H      0.7309     1.0000     0.2691     0.9013     0.9013     0.0000
 23 H      0.8099     1.0000     0.1901     0.9354     0.9354     0.0000
 24 H      0.7779     1.0000     0.2221     0.9530     0.9530     0.0000
 25 H      0.7911     1.0000     0.2089     0.9449     0.9449     0.0000
 26 H      0.8021     1.0000     0.1979     0.9359     0.9359    -0.0000
 27 H      0.8447     1.0000     0.1553     0.9462     0.9462    -0.0000
 28 H      0.8414     1.0000     0.1586     0.9471     0.9471     0.0000
 29 H      0.6344     1.0000     0.3656     0.8639     0.8639     0.0000
 30 H      0.6577     1.0000     0.3423     0.8580     0.8580    -0.0000
 31 H      0.5563     1.0000     0.4437     0.7690     0.7690     0.0000
 32 H      0.8034     1.0000     0.1966     0.9550     0.9550     0.0000
 33 H      0.7964     1.0000     0.2036     0.9453     0.9453     0.0000
 34 H      0.8090     1.0000     0.1910     0.9497     0.9497     0.0000

  Mayer bond orders larger than 0.100000
B(  0-S ,  8-C ) :   1.1311 B(  0-S , 11-C ) :   1.3344 B(  1-O , 13-C ) :   0.9739 
B(  1-O , 31-H ) :   0.7522 B(  2-N ,  6-C ) :   1.2253 B(  2-N ,  7-C ) :   0.8009 
B(  2-N , 11-C ) :   1.3704 B(  3-N , 14-C ) :   1.5125 B(  3-N , 16-C ) :   1.5495 
[...]
 39:    733.86   0.006993   35.34  0.002974  ( 0.034074  0.019545 -0.037824)
 40:    750.42   0.000486    2.45  0.000202  (-0.008328 -0.009251 -0.006856)
 41:    770.16   0.002479   12.53  0.001004  ( 0.003173  0.027623  0.015208)
 42:    798.84   0.000436    2.20  0.000170  ( 0.006908 -0.008847 -0.006653)
 43:    803.15   0.000280    1.41  0.000109  ( 0.002726  0.002519 -0.009748)
 44:    881.09   0.002586   13.07  0.000916  ( 0.008310 -0.015464  0.024653)
 45:    912.55   0.001888    9.54  0.000646  ( 0.009057  0.009034  0.021956)
 46:    926.82   0.000921    4.65  0.000310  (-0.005018  0.010411 -0.013284)
 47:    942.74   0.001342    6.78  0.000444  (-0.001916  0.011521 -0.017540)
 48:    960.40   0.001272    6.43  0.000413  (-0.016417 -0.005069  0.010866)
 49:    979.31   0.001406    7.10  0.000448  ( 0.014369 -0.008062  0.013286)
 50:    989.31   0.001082    5.47  0.000341  (-0.015855  0.001552 -0.009348)
 51:   1015.38   0.002585   13.06  0.000794  (-0.009181  0.006031 -0.025957)
 52:   1052.52   0.001464    7.40  0.000434  (-0.006071 -0.007557  0.018444)
 53:   1056.34   0.002940   14.86  0.000869  ( 0.007160  0.023969 -0.015579)
 54:   1072.81   0.007106   35.91  0.002067  (-0.003705  0.002661 -0.045235)
 55:   1084.40   0.000037    0.19  0.000011  (-0.000991 -0.000770 -0.002999)
 56:   1100.56   0.004283   21.64  0.001214  (-0.012128  0.000217 -0.032668)
 57:   1117.09   0.001163    5.88  0.000325  ( 0.017408  0.003540 -0.003048)
 58:   1182.02   0.001199    6.06  0.000317  ( 0.007417 -0.010085  0.012643)
 59:   1187.77   0.000096    0.48  0.000025  ( 0.001103 -0.004036  0.002769)
 60:   1217.81   0.003372   17.04  0.000864  ( 0.013273  0.003743  0.025957)
 61:   1223.72   0.000405    2.04  0.000103  (-0.002972  0.002122  0.009478)
 62:   1241.78   0.000492    2.49  0.000124  (-0.003235  0.000535 -0.010624)
 63:   1269.92   0.005128   25.92  0.001260  ( 0.001036  0.001747  0.035441)
 64:   1278.81   0.008193   41.40  0.001999  ( 0.003413 -0.017205  0.041128)
 65:   1308.56   0.002282   11.53  0.000544  ( 0.005741 -0.004453  0.022169)
 66:   1311.39   0.005729   28.95  0.001363  (-0.022566  0.017164 -0.023654)
 67:   1327.06   0.000616    3.11  0.000145  (-0.001728  0.010023 -0.006426)
 68:   1349.72   0.000811    4.10  0.000187  ( 0.013087 -0.001612 -0.003681)
 69:   1381.69   0.002225   11.24  0.000503  ( 0.012048  0.012994 -0.013731)
 70:   1401.69   0.000801    4.05  0.000178  (-0.002063 -0.003214  0.012800)
 71:   1403.77   0.000317    1.60  0.000070  (-0.003584 -0.000978  0.007521)
 72:   1425.02   0.001464    7.40  0.000321  (-0.005869 -0.015265 -0.007290)
 73:   1433.90   0.011533   58.28  0.002510  ( 0.022953  0.016010 -0.041554)
 74:   1438.57   0.002446   12.36  0.000531  ( 0.016169 -0.015958  0.003805)
 75:   1463.23   0.011153   56.36  0.002379  (-0.006513 -0.028254  0.039217)
 76:   1465.48   0.020780  105.01  0.004425  (-0.052310 -0.020051  0.035869)
 77:   1479.19   0.004162   21.03  0.000878  ( 0.028454  0.003353 -0.007566)
 78:   1480.27   0.003285   16.60  0.000693  ( 0.005349 -0.019613  0.016709)
 79:   1483.71   0.017544   88.66  0.003690  (-0.055944  0.010114  0.021398)
 80:   1489.20   0.005411   27.34  0.001134  (-0.019491 -0.001499 -0.027417)
 81:   1497.85   0.006493   32.81  0.001353  ( 0.012548 -0.031889  0.013357)
 82:   1514.95   0.002259   11.41  0.000465  ( 0.019923 -0.007826 -0.002655)
 83:   1523.48   0.001449    7.32  0.000297  (-0.017007 -0.002476  0.001231)
 84:   1569.40   0.045770  231.30  0.009101  ( 0.071044 -0.019329  0.060664)
 85:   1608.81   0.013591   68.68  0.002636  (-0.020658  0.009276  0.046082)
 86:   1610.93   0.028146  142.24  0.005452  ( 0.050528  0.029983 -0.044725)
 87:   1670.42   0.044872  226.76  0.008383  (-0.089115  0.020954  0.001477)
 88:   2953.04   0.009151   46.25  0.000967  ( 0.024950  0.002748  0.018358)
 89:   3004.23   0.006703   33.87  0.000696  (-0.009360  0.024654 -0.000896)
 90:   3014.00   0.002002   10.11  0.000207  (-0.008437  0.004520  0.010753)
 91:   3014.36   0.001923    9.72  0.000199  (-0.008487 -0.002306  0.011033)
 92:   3019.06   0.000838    4.24  0.000087  ( 0.009283  0.000655 -0.000240)
 93:   3037.79   0.002233   11.29  0.000229  ( 0.000103 -0.013858  0.006113)
 94:   3057.48   0.000445    2.25  0.000045  (-0.001728 -0.006413 -0.001123)
 95:   3081.67   0.000971    4.90  0.000098  (-0.008129 -0.002817 -0.004926)
 96:   3083.95   0.000327    1.65  0.000033  ( 0.002598 -0.000879 -0.005056)
 97:   3085.23   0.001613    8.15  0.000163  (-0.003744  0.007075  0.009954)
 98:   3089.78   0.007068   35.72  0.000714  ( 0.011550 -0.008343  0.022601)
 99:   3133.02   0.001078    5.45  0.000107  ( 0.008201 -0.001126  0.006229)
100:   3152.03   0.000205    1.04  0.000020  (-0.000338  0.004482 -0.000346)
101:   3231.50   0.004500   22.74  0.000435  (-0.002072  0.018337  0.009699)
102:   3524.68   0.013041   65.90  0.001155  (-0.029564  0.009863 -0.013538)
103:   3640.29   0.004859   24.56  0.000417  ( 0.002330  0.001119 -0.020245)
104:   3763.78   0.009267   46.83  0.000768  (-0.017382  0.001102  0.021563)

* The epsilon (eps) is given for a Dirac delta lineshape.
** The dipole moment derivative (T) already includes vibrational overlap.

The first frequency considered to be a vibration is 6
The total number of vibrations considered is 99


--------------------------
THERMOCHEMISTRY AT 298.15K
--------------------------

Temperature         ...   298.15 K
Pressure            ...     1.00 atm
Total Mass          ...   265.35 AMU
Quasi RRHO          ...     True
Cut-Off Frequency   ...     1.00 cm^-1

Throughout the following assumptions are being made:
  (1) The electronic state is orbitally nondegenerate
  (2) There are no thermally accessible electronically excited states
  (3) Hindered rotations indicated by low frequency modes are not
      treated as such but are treated as vibrations and this may
      cause some error
  (4) All equations used are the standard statistical mechanics
      equations for an ideal gas
  (5) All vibrations are strictly harmonic

freq.      19.23  E(vib)   ...       0.57 
freq.      27.65  E(vib)   ...       0.55 
freq.      34.24  E(vib)   ...       0.54 
freq.      36.07  E(vib)   ...       0.54 
freq.      58.85  E(vib)   ...       0.51 
freq.      75.56  E(vib)   ...       0.49 
freq.     113.02  E(vib)   ...       0.45 
freq.     128.95  E(vib)   ...       0.43 
freq.     139.76  E(vib)   ...       0.41 
freq.     188.29  E(vib)   ...       0.36 
freq.     195.51  E(vib)   ...       0.36 
freq.     204.91  E(vib)   ...       0.35 
freq.     262.89  E(vib)   ...       0.29 
freq.     272.57  E(vib)   ...       0.29 
freq.     286.09  E(vib)   ...       0.27 
freq.     295.07  E(vib)   ...       0.27 
freq.     322.34  E(vib)   ...       0.25 
freq.     334.54  E(vib)   ...       0.24 
freq.     343.39  E(vib)   ...       0.23 
freq.     397.22  E(vib)   ...       0.20 
freq.     416.36  E(vib)   ...       0.18 
freq.     430.59  E(vib)   ...       0.18 
freq.     452.84  E(vib)   ...       0.16 
freq.     497.95  E(vib)   ...       0.14 
freq.     508.21  E(vib)   ...       0.14 
freq.     532.01  E(vib)   ...       0.13 
freq.     576.53  E(vib)   ...       0.11 
freq.     584.96  E(vib)   ...       0.11 
freq.     594.11  E(vib)   ...       0.10 
freq.     617.71  E(vib)   ...       0.09 
freq.     648.52  E(vib)   ...       0.08 
freq.     649.36  E(vib)   ...       0.08 
freq.     691.70  E(vib)   ...       0.07 
freq.     733.86  E(vib)   ...       0.06 
freq.     750.42  E(vib)   ...       0.06 
freq.     770.16  E(vib)   ...       0.05 
freq.     798.84  E(vib)   ...       0.05 
freq.     803.15  E(vib)   ...       0.05 
freq.     881.09  E(vib)   ...       0.04 
freq.     912.55  E(vib)   ...       0.03 
freq.     926.82  E(vib)   ...       0.03 
freq.     942.74  E(vib)   ...       0.03 
freq.     960.40  E(vib)   ...       0.03 
freq.     979.31  E(vib)   ...       0.03 
freq.     989.31  E(vib)   ...       0.02 
freq.    1015.38  E(vib)   ...       0.02 
freq.    1052.52  E(vib)   ...       0.02 
freq.    1056.34  E(vib)   ...       0.02 
freq.    1072.81  E(vib)   ...       0.02 
freq.    1084.40  E(vib)   ...       0.02 
freq.    1100.56  E(vib)   ...       0.02 
freq.    1117.09  E(vib)   ...       0.01 
freq.    1182.02  E(vib)   ...       0.01 
freq.    1187.77  E(vib)   ...       0.01 
freq.    1217.81  E(vib)   ...       0.01 
freq.    1223.72  E(vib)   ...       0.01 
freq.    1241.78  E(vib)   ...       0.01 
freq.    1269.92  E(vib)   ...       0.01 
freq.    1278.81  E(vib)   ...       0.01 
freq.    1308.56  E(vib)   ...       0.01 
freq.    1311.39  E(vib)   ...       0.01 
freq.    1327.06  E(vib)   ...       0.01 
freq.    1349.72  E(vib)   ...       0.01 
freq.    1381.69  E(vib)   ...       0.01 
freq.    1401.69  E(vib)   ...       0.00 
freq.    1403.77  E(vib)   ...       0.00 
freq.    1425.02  E(vib)   ...       0.00 
freq.    1433.90  E(vib)   ...       0.00 
freq.    1438.57  E(vib)   ...       0.00 
freq.    1463.23  E(vib)   ...       0.00 
freq.    1465.48  E(vib)   ...       0.00 
freq.    1479.19  E(vib)   ...       0.00 
freq.    1480.27  E(vib)   ...       0.00 
freq.    1483.71  E(vib)   ...       0.00 
freq.    1489.20  E(vib)   ...       0.00 
freq.    1497.85  E(vib)   ...       0.00 
freq.    1514.95  E(vib)   ...       0.00 
freq.    1523.48  E(vib)   ...       0.00 
freq.    1569.40  E(vib)   ...       0.00 
freq.    1608.81  E(vib)   ...       0.00 
freq.    1610.93  E(vib)   ...       0.00 
freq.    1670.42  E(vib)   ...       0.00 
freq.    2953.04  E(vib)   ...       0.00 
freq.    3004.23  E(vib)   ...       0.00 
freq.    3014.00  E(vib)   ...       0.00 
freq.    3014.36  E(vib)   ...       0.00 
freq.    3019.06  E(vib)   ...       0.00 
freq.    3037.79  E(vib)   ...       0.00 
freq.    3057.48  E(vib)   ...       0.00 
freq.    3081.67  E(vib)   ...       0.00 
freq.    3083.95  E(vib)   ...       0.00 
freq.    3085.23  E(vib)   ...       0.00 
freq.    3089.78  E(vib)   ...       0.00 
freq.    3133.02  E(vib)   ...       0.00 
freq.    3152.03  E(vib)   ...       0.00 
freq.    3231.50  E(vib)   ...       0.00 
freq.    3524.68  E(vib)   ...       0.00 
freq.    3640.29  E(vib)   ...       0.00 
freq.    3763.78  E(vib)   ...       0.00 

------------
INNER ENERGY
------------

The inner energy is: U= E(el) + E(ZPE) + E(vib) + E(rot) + E(trans)
    E(el)   - is the total energy from the electronic structure calculation
              = E(kin-el) + E(nuc-el) + E(el-el) + E(nuc-nuc)
    E(ZPE)  - the the zero temperature vibrational energy from the frequency calculation
    E(vib)  - the the finite temperature correction to E(ZPE) due to population
              of excited vibrational states
    E(rot)  - is the rotational thermal energy
    E(trans)- is the translational thermal energy

Summary of contributions to the inner energy U:
Electronic energy                ...  -1159.31564617 Eh
Zero point energy                ...      0.28479546 Eh     178.71 kcal/mol
Thermal vibrational correction   ...      0.01583844 Eh       9.94 kcal/mol
Thermal rotational correction    ...      0.00141627 Eh       0.89 kcal/mol
Thermal translational correction ...      0.00141627 Eh       0.89 kcal/mol
-----------------------------------------------------------------------
Total thermal energy                  -1159.01217972 Eh


Summary of corrections to the electronic energy:
(perhaps to be used in another calculation)
Total thermal correction                  0.01867099 Eh      11.72 kcal/mol
Non-thermal (ZPE) correction              0.28479546 Eh     178.71 kcal/mol
-----------------------------------------------------------------------
Total correction                          0.30346645 Eh     190.43 kcal/mol


--------
ENTHALPY
--------

The enthalpy is H = U + kB*T
                kB is Boltzmann's constant
Total thermal energy              ...  -1159.01217972 Eh 
Thermal Enthalpy correction       ...      0.00094421 Eh       0.59 kcal/mol
-----------------------------------------------------------------------
Total Enthalpy                    ...  -1159.01123551 Eh


Note: Only C1 symmetry has been detected, increase convergence thresholds 
      if your molecule has a higher symmetry. Symmetry factor of 1.0 is   
      used for the rotational entropy correction. 
 

Note: Rotational entropy computed according to Herzberg 
Infrared and Raman Spectra, Chapter V,1, Van Nostrand Reinhold, 1945 
Point Group:  C1, Symmetry Number:   1  
Rotational constants in cm-1:     0.020990     0.008004     0.006971 

Vibrational entropy computed according to the QRRHO of S. Grimme
Chem.Eur.J. 2012 18 9955 using a reference frequency of 100.0 cm-1


-------
ENTROPY
-------

The entropy contributions are T*S = T*(S(el)+S(vib)+S(rot)+S(trans))
     S(el)   - electronic entropy
     S(vib)  - vibrational entropy
     S(rot)  - rotational entropy
     S(trans)- translational entropy
The entropies will be listed as multiplied by the temperature to get
units of energy

Electronic entropy                ...      0.00000000 Eh      0.00 kcal/mol
Vibrational entropy               ...      0.02842952 Eh     17.84 kcal/mol
Rotational entropy                ...      0.01595836 Eh     10.01 kcal/mol
Translational entropy             ...      0.02025338 Eh     12.71 kcal/mol
-----------------------------------------------------------------------
Final entropy term                ...      0.06464127 Eh     40.56 kcal/mol

In case the symmetry of your molecule has not been determined correctly
or in case you have a reason to use a different symmetry number we print 
out the resulting rotational entropy values for sn=1,12:

 non-linear molecules -----------------------------------
|  sn= 1 | S(rot)=       0.01595836 Eh     10.01 kcal/mol|
|  sn= 2 | S(rot)=       0.01530391 Eh      9.60 kcal/mol|
|  sn= 3 | S(rot)=       0.01492108 Eh      9.36 kcal/mol|
|  sn= 4 | S(rot)=       0.01464945 Eh      9.19 kcal/mol|
|  sn= 5 | S(rot)=       0.01443876 Eh      9.06 kcal/mol|
|  sn= 6 | S(rot)=       0.01426662 Eh      8.95 kcal/mol|
|  sn= 7 | S(rot)=       0.01412107 Eh      8.86 kcal/mol|
|  sn= 8 | S(rot)=       0.01399500 Eh      8.78 kcal/mol|
|  sn= 9 | S(rot)=       0.01388379 Eh      8.71 kcal/mol|
|  sn=10 | S(rot)=       0.01378431 Eh      8.65 kcal/mol|
|  sn=11 | S(rot)=       0.01369432 Eh      8.59 kcal/mol|
|  sn=12 | S(rot)=       0.01361216 Eh      8.54 kcal/mol|
 linear molecules ---------------------------------------
|  Dinfh | S(rot)=       0.01001455 Eh      6.28 kcal/mol|
|  Cinfv | S(rot)=       0.01066901 Eh      6.69 kcal/mol|
 --------------------------------------------------------


-------------------
GIBBS FREE ENERGY
-------------------

The Gibbs free energy is G = H - T*S

Total enthalpy                    ...  -1159.01123551 Eh 
Total entropy correction          ...     -0.06464127 Eh    -40.56 kcal/mol
-----------------------------------------------------------------------
Final Gibbs free energy         ...  -1159.07587678 Eh

For completeness - the Gibbs free energy minus the electronic energy
G-E(el)                           ...      0.23976939 Eh    150.46 kcal/mol


Maximum memory used throughout the entire PROP-calculation: 109.4 MB

--------------------------------
SUGGESTED CITATIONS FOR THIS RUN
--------------------------------

Below you find a list of papers that are relevant to this ORCA run
We neither can nor want to force you to cite these papers, but we appreciate if you do
You receive ORCA, which is the product of decades of hard work by many enthusiastic individuals, for free
The only thing we kindly ask in return is that you cite our papers,
We deeply appreciate it, if you show your appreciation for ORCA by not just citing the generic ORCA reference.

Please note that relegating all ORCA citations to the supporting information does *not* help us.
SI sections are not indexed - citations you put there will not count into any citation statistics
But we need these citations in order to attract the funding resources that allow us to do what we are doing

Therefore, if you are a happy ORCA user, please consider citing a few of the papers listed below in the main body of your paper

In addition to the list printed below, the program has created the file m1_01_Vitamin_B1-GFN1_000-B97-3C-TZ.bibtex that contains the list in bibtex format
You can import this file easily into all common literature databanks and citation aid programs


List of essential papers. We consider these as the minimum necessary citations

  1. Neese,F.
     Software update: the ORCA program system, version 5.0
     WIRES Comput. Molec. Sci., 2022 12(1)e1606
     doi.org/10.1002/wcms.1606

List of papers to cite with high priority. The work reported in these papers was absolutely
necessary for this run to complete.
Our perspective: the developers of density functionals and basis sets usually get cited in chemistry papers
Good! But without the algorithms to do something with them, the functionals or basis sets would not do anything.
Hence, in our opinion, the algorithm design and method developments papers are equally worthy of getting cited

  1. Neese,F.
     An improvement of the resolution of the identity approximation for the formation of the Coulomb matrix
     J. Comp. Chem., 2003 24(14)1740-1747
     doi.org/10.1002/jcc.10318
  2. Bykov,D.; Petrenko,T.; Izsak,R.; Kossmann,S.; Becker,U.; Valeev,E.; Neese,F.
     Efficient implementation of the analytic second derivatives of Hartree-Fock and hybrid DFT energies: a detailed analysis of different approximations
     Molec. Phys., 2015 113 1961-1977
     doi.org/10.1080/00268976.2015.1025114
  3. Neese,F.
     The SHARK Integral Generation and Digestion System
     J. Comp. Chem., 2022  1-16
     doi.org/10.1002/jcc.26942
  4. Grimme,S.; Antony,J.; Ehrlich,S.; Krieg,H.
     A consistent and accurate ab initio parametrization of density functional dispersion correction (DFT-D) for the 94 elements H-Pu
     J. Chem. Phys., 2010 132 154104
     doi.org/10.1063/1.3382344
  5. Grimme,S.; Ehrlich,S.; Goerigk,L.
     Effect of the damping function in dispersion corrected density functional theory
     J. Comput. Chem., 2011 32(7)1456-1465
     doi.org/10.1002/jcc.21759

List of suggested additional citations. These are papers that are important in the 'surrounding' of 
of this run, or papers that preceded the highly important papers. If you like your results we are grateful for a citation.

  1. Neese,F.
     The ORCA program system
     WIRES Comput. Molec. Sci., 2012 2(1)73-78
     doi.org/10.1002/wcms.81
  2. Neese,F.
     Software update: the ORCA program system, version 4.0
     WIRES Comput. Molec. Sci., 2018 8(1)1-6
     doi.org/10.1002/wcms.1327
  3. Neese,F.; Wennmohs,F.; Becker,U.; Riplinger,C.
     The ORCA quantum chemistry program package
     J. Chem. Phys., 2020 152 Art. No. L224108
     doi.org/10.1063/5.0004608

List of optional additional citations

  1. Neese,F.
     Approximate second-order SCF convergence for spin unrestricted wavefunctions
     Chem. Phys. Lett., 2000 325(1-3)93-98
     doi.org/10.1016/s0009-2614(00)00662-x

Timings for individual modules:

Sum of individual times          ...      563.365 sec (=   9.389 min)
Startup calculation              ...       89.237 sec (=   1.487 min)  15.8 %
SCF iterations                   ...      174.279 sec (=   2.905 min)  30.9 %
Property integrals               ...       83.570 sec (=   1.393 min)  14.8 %
SCF Response                     ...       79.882 sec (=   1.331 min)  14.2 %
Property calculations            ...       32.829 sec (=   0.547 min)   5.8 %
SCF Gradient evaluation          ...      103.339 sec (=   1.722 min)  18.3 %
Geometry relaxation              ...        0.229 sec (=   0.004 min)   0.0 %
                             ****ORCA TERMINATED NORMALLY****
TOTAL RUN TIME: 0 days 0 hours 9 minutes 28 seconds 977 msec
