
                                 *****************
                                 * O   R   C   A *
                                 *****************

                                            #,                                       
                                            ###                                      
                                            ####                                     
                                            #####                                    
                                            ######                                   
                                           ########,                                 
                                     ,,################,,,,,                         
                               ,,#################################,,                 
                          ,,##########################################,,             
                       ,#########################################, ''#####,          
                    ,#############################################,,   '####,        
                  ,##################################################,,,,####,       
                ,###########''''           ''''###############################       
              ,#####''   ,,,,##########,,,,          '''####'''          '####       
            ,##' ,,,,###########################,,,                        '##       
           ' ,,###''''                  '''############,,,                           
         ,,##''                                '''############,,,,        ,,,,,,###''
      ,#''                                            '''#######################'''  
     '                                                          ''''####''''         
             ,#######,   #######,   ,#######,      ##                                
            ,#'     '#,  ##    ##  ,#'     '#,    #''#        ,####,   ,####,        
            ##       ##  ##   ,#'  ##            #'  '#       #'       #'  '#        
            ##       ##  #######   ##           ,######,      #####,   #    #        
            '#,     ,#'  ##    ##  '#,     ,#' ,#      #,     #,   #   #,  ,#        
             '#######'   ##     ##  '#######'  #'      '#     '####' # '####'        



                #########################################################
                #                        -***-                          #
                #          Department of theory and spectroscopy        #
                #                                                       #
                #                      Frank Neese                      #
                #                                                       #
                #     Directorship, Architecture, Infrastructure        #
                #                    SHARK, DRIVERS                     #
                #        Core code/Algorithms in most modules           #
                #                                                       #
                #        Max Planck Institute fuer Kohlenforschung      #
                #                Kaiser Wilhelm Platz 1                 #
                #                 D-45470 Muelheim/Ruhr                 #
                #                      Germany                          #
                #                                                       #
                #                  All rights reserved                  #
                #                        -***-                          #
                #########################################################


                         Program Version 6.0.1  -  RELEASE   -


 With contributions from (in alphabetic order):
[Max-Planck-Institut fuer Kohlenforschung]                               
  Daniel Aravena         : Magnetic Suceptibility                        
  Michael Atanasov       : Ab Initio Ligand Field Theory (pilot matlab implementation)
  Alexander A. Auer      : GIAO ZORA, VPT2 properties, NMR spectrum      
  Ute Becker             : All parallelization in ORCA, NUMFREQ, NUMCALC 
  Giovanni Bistoni       : ED, misc. LED, open-shell LED, HFLD           
  Martin Brehm           : Molecular dynamics                            
  Dmytro Bykov           : pre 5.0 version of the SCF Hessian            
  Marcos Casanova-Páez   : Triplet and SCS-CIS(D). UHF-(DLPNO)-IP/EA/STEOM-CCSD. UHF-CVS-IP/STEOM-CCSD   
  Vijay G. Chilkuri      : MRCI spin determinant printing, contributions to CSF-ICE 
  Pauline Colinet        : FMM embedding                                 
  Dipayan Datta          : RHF DLPNO-CCSD density                        
  Achintya Kumar Dutta   : EOM-CC, STEOM-CC                              
  Nicolas Foglia         : Exact transition moments, OPA infrastructure, MCD improvements    
  Dmitry Ganyushin       : Spin-Orbit,Spin-Spin,Magnetic field MRCI      
  Miquel Garcia-Rates    : C-PCM and meta-GGA Hessian, CCSD/C-PCM, Gaussian charge scheme 
  Tiago L. C. Gouveia    : GS-ROHF, GS-ROCIS                             
  Yang Guo               : DLPNO-NEVPT2, F12-NEVPT2, CIM, IAO-localization        
  Andreas Hansen         : Spin unrestricted coupled pair/coupled cluster methods 
  Ingolf Harden          : AUTO-CI MPn and infrastructure                
  Benjamin Helmich-Paris : MC-RPA, TRAH-(SCF,CASSCF), AVAS, COSX integrals, SCF dyn. polar. 
  Lee Huntington         : MR-EOM, pCC                                   
  Robert Izsak           : Overlap fitted RIJCOSX, COSX-SCS-MP3, EOM     
  Riya Kayal             : Wick's Theorem for AUTO-CI, AUTO-CI UHF-CCSDT 
  Emily Kempfer          : AUTO-CI, RHF CISDT and CCSDT                  
  Christian Kollmar      : KDIIS, OOCD, Brueckner-CCSD(T), CCSD density, CASPT2, CASPT2-K, improved NEVPT2 
  Axel Koslowski         : Symmetry handling                             
  Simone Kossmann        : meta-GGA functionals, TD-DFT gradient, OOMP2, (MP2 Hessian; deprecated post 5.0) 
  Lucas Lang             : DCDCAS                                        
  Marvin Lechner         : AUTO-CI (C++ implementation), FIC-MRCC        
  Spencer Leger          : CASSCF response                               
  Dagmar Lenk            : GEPOL surface, SMD, ORCA-2-JSON               
  Dimitrios Liakos       : Extrapolation schemes; Compound Job, initial MDCI parallelization 
  Dimitrios Manganas     : Further ROCIS development; embedding schemes. LFT, Crystal Embedding 
  Dimitrios Pantazis     : SARC Basis sets                               
  Anastasios Papadopoulos: AUTO-CI, single reference methods and gradients 
  Taras Petrenko         : pre 6.0 DFT Hessian and TD-DFT gradient, (ASA, deprecated), ECA, 1-Electron XAS/XES, NRVS 
  Peter Pinski           : DLPNO-MP2, DLPNO-MP2 Gradient                 
  Christoph Reimann      : Effective Core Potentials                     
  Marius Retegan         : Local ZFS, SOC                                
  Christoph Riplinger    : Optimizer, TS searches, QM/MM, DLPNO-CCSD(T), (RO)-DLPNO pert. Triples 
  Michael Roemelt        : Original ROCIS implementation                 
  Masaaki Saitow         : Open-shell DLPNO-CCSD energy and density      
  Barbara Sandhoefer     : DKH picture change effects                    
  Kantharuban Sivalingam : CASSCF convergence/infrastructure, NEVPT2 and variants, FIC-MRCI 
  Bernardo de Souza      : ESD, SOC TD-DFT                               
  Georgi L. Stoychev     : AutoAux, RI-MP2 NMR, DLPNO-MP2 response, X2C  
  Van Anh Tran           : RI-MP2 g-tensors                              
  Willem Van den Heuvel  : Paramagnetic NMR                              
  Zikuan Wang            : NOTCH, Electric field optimization            
  Frank Wennmohs         : Technical directorship and infrastructure     
  Hang Xu                : AUTO-CI-Response properties                   
                                                                         
[FACCTs GmbH]                                                            
  Markus Bursch, Miquel Garcia-Rates, Christoph Riplinger, Bernardo de Souza, Georgi L. Stoychev 
                                                                 
  APM, Basis sets (HGBS, AHGBS, def-TZVP (Ac-Lr), def2-XVPD (La-Lu)), CI-OPT, improved COSX, DLPNO-Multilevel,           
  DOCKER, DRACO, updates on ESD, GOAT, IRC, LR-CPCM, MBIS, meta-GGA TD-DFT gradient, ML-optimized integration grids, 
  MM, NACMEs, nearIR, NEB, NEB-TS, NL-DFT gradient (VV10), 2- and 3-layer-ONIOM, interface openCOSMO-RS, QMMM,   
  Crystal-QMMM, SF, symmetry and pop. for TD-DFT, r2SCAN hybrids, SOLVATOR                                   
                                                                         
[Other institutions]                                                     
  V. Asgeirsson          : NEB                                           
  Christoph Bannwarth    : sTDA-DFT, sTD-DFT, PBEh-3c, B97-3c, D3        
  Sebastian Ehlert       : rSCAN, r2SCAN, r2SCAN-3c, D4, dhf basis sets  
  Marvin Friede          : D4 for Fr, Ra, Ac-Lr                          
  Lars Goerigk           : TD-DFT with DH, B97 family of functionals     
  Stefan Grimme          : VdW corrections, initial TS optimization, DFT functionals, gCP, sTDA/sTD-DF 
  Waldemar Hujo          : DFT-NL                                        
  H. Jonsson             : NEB                                           
  Holger Kruse           : gCP                                           
  Marcel Mueller         : wB97X-3c, vDZP basis set                      
  Hagen Neugebauer       : wr2SCAN                                       
  Tobias Risthaus        : range-separated hybrid DFT                    
  Lukas Wittmann         : regularized MP2, r2SCAN double-hybrids, wr2SCAN        
                                                                         
We gratefully acknowledge several colleagues who have allowed us to      
interface, adapt or use parts of their codes:                            
  Ed Valeev, F. Pavosevic, A. Kumar             : LibInt (2-el integral package), F12 methods 
  Garnet Chan, S. Sharma, J. Yang, R. Olivares  : DMRG                   
  Ulf Ekstrom                                   : XCFun DFT Library      
  Mihaly Kallay                                 : mrcc  (arbitrary order and MRCC methods)
  Frank Weinhold                                : gennbo (NPA and NBO analysis)           
  Simon Mueller                                 : openCOSMO-RS                            
  Christopher J. Cramer and Donald G. Truhlar   : smd solvation model                     
  S Lehtola, MJT Oliveira, MAL Marques          : LibXC Library                           
  Liviu Ungur et al                             : ANISO software                          


 Your calculation uses the libint2 library for the computation of 2-el integrals
 For citations please refer to: http://libint.valeyev.net

 Your ORCA version has been built with support for libXC version: 6.2.2
 For citations please refer to: https://libxc.gitlab.io

 This ORCA versions uses:
   CBLAS   interface :  Fast vector & matrix operations
   LAPACKE interface :  Fast linear algebra routines
   SCALAPACK package :  Parallel linear algebra routines
   Shared memory     :  Shared parallel matrices
   BLAS/LAPACK       :  OpenBLAS 0.3.27  USE64BITINT DYNAMIC_ARCH NO_AFFINITY Zen SINGLE_THREADED
        Core in use  :  Zen
   Copyright (c) 2011-2014, The OpenBLAS Project


NOTE: MaxCore=6000 MB was set to SCF,MP2,MDCI,CIPSI,MRCI and CIS
      => If you want to overwrite this, your respective input block should be placed after the MaxCore statement
Your calculation utilizes the atom-pairwise dispersion correction
with the Becke-Johnson damping scheme (D3BJ)


Your calculation employs the composite approach B97-3c by Grimme and coworkers.
For the correct reference, please check the publication list of the Grimme group:
http://www.thch.uni-bonn.de/tc/index.php?section=publikationen&subsection=grimme#2017
   

XCFun DFT library Copyright 2009-2010 Ulf Ekstrom and contributors.
See http://admol.org/xcfun for more information.
This is free software; see the source code for copying conditions.
There is ABSOLUTELY NO WARRANTY; not even for MERCHANTABILITY or FITNESS FOR A PARTICULAR PURPOSE.
For details see the documentation.
Scientific users of this library should cite U. Ekstrom, L. Visscher, R. Bast, A. J. Thorvaldsen and K. Ruud;
J.Chem.Theor.Comp. 2010, DOI: 10.1021/ct100117s
XCFun Version 0.99 

================================================================================

----- Orbital basis set information -----
Your calculation utilizes the basis: def2-mTZVP
----- AuxJ basis set information -----
Your calculation utilizes the basis: def2-mTZVP/J
================================================================================
                                        WARNINGS
                       Please study these warnings very carefully!
================================================================================


WARNING: Geometry Optimization
  ===> : Switching off AutoStart
         For restart on a previous wavefunction, please use MOREAD

================================================================================
                                       INPUT FILE
================================================================================
NAME = m1_01_Vitamin_B1-GFN1_009-B97-3C-TZ_0_pos-B97-3C-TZ.inp
|  1> %pal nprocs 16 end
|  2> %MaxCore 6000
|  3> # put your comments here
|  4> ! B97-3C  OPT  FREQ DEFGRID3 NOTRAH
|  5> %scf MaxIter 800 end
|  6> %output
|  7> Print [P_Hirshfeld] 1
|  8> end
|  9> %geom
| 10> MaxIter 3000
| 11>  TolE 1e-6 #TolE 5e-6 Energy change (a.u.)
| 12>  TolRMSG 3e-5 #TolRMSG 1e-4 RMS gradient (a.u.)
| 13>  TolMaxG 1e-4 #TolMaxG 3e-3 Max. element of gradient (a.u.)
| 14>  TolRMSD 2e-3 #TolRMSD 2e-3 RMS displacement (a.u.)
| 15>  TolMaxD 4e-3 #TolMaxD 4e-3 Max. displacement (a.u.)
| 16> end
| 17> * xyz 1 1
| 18>  S  -0.280020105740   8.187050254056  -1.968123243037
| 19>  O  -2.184677857194   6.324849248839  -5.018492597348
| 20>  N  -2.706266664014   8.325288119816  -1.364867756327
| 21>  N  -6.471651555129  10.972536920486  -2.872293127610
| 22>  N  -4.799442553550  10.262537829834  -4.397865441876
| 23>  N  -6.453329550064  10.408460536035  -0.652999876061
| 24>  C  -2.593168039835   7.097677168317  -2.004913037002
| 25>  C  -3.992622583953   8.909782671133  -0.962893177806
| 26>  C  -1.311921949976   6.855690687534  -2.399117718357
| 27>  C  -0.782783619709   5.722872246109  -3.200949480816
| 28>  C  -4.682396563319   9.593392071580  -2.102251842095
| 29>  C  -1.578580450949   9.012872686800  -1.280290076546
| 30>  C  -3.780182545518   6.231960467982  -2.189603834329
| 31>  C  -0.838588445914   6.016474146795  -4.696130969433
| 32>  C  -5.878901706735  10.304405340200  -1.881989906574
| 33>  C  -4.208884219296   9.614116695846  -3.400925372679
| 34>  C  -5.915785837316  10.936583964534  -4.082438159271
| 35>  C  -6.573382005256  11.710524059377  -5.169142240698
| 36>  H  -3.788329689643   9.609777671109  -0.151096157889
| 37>  H  -4.586674281225   8.102487475423  -0.539149595953
| 38>  H  -1.366226930648   4.829446293901  -2.983913522821
| 39>  H   0.245397485062   5.498765560771  -2.921772421953
| 40>  H  -1.515216342502   9.988491725991  -0.832259912743
| 41>  H  -4.147123361573   5.850383646693  -1.235346752676
| 42>  H  -4.586087754739   6.775982927880  -2.675898032299
| 43>  H  -3.533891151532   5.391963523871  -2.822639293671
| 44>  H  -0.484477929866   5.133920649002  -5.235443669867
| 45>  H  -0.172123114633   6.849631525474  -4.935509041501
| 46>  H  -3.303628259693   9.078509972893  -3.669285503198
| 47>  H  -6.329535875345   9.686223685502   0.031654429245
| 48>  H  -7.358163479641  10.849890284070  -0.646534572588
| 49>  H  -2.263709014623   6.421549433501  -5.972827443523
| 50>  H  -7.643982507904  11.877373585795  -4.933950529775
| 51>  H  -6.069697544505  12.718748236547  -5.243315143300
| 52>  H  -6.439868458342  11.200025576190  -6.147940745965
| 53> *
| 54> 
| 55> 
| 56> 
| 57> 
| 58>                          ****END OF INPUT****
================================================================================

                       *****************************
                       * Geometry Optimization Run *
                       *****************************

Geometry optimization settings:
Update method            Update   .... BFGS
Choice of coordinates    CoordSys .... (2022) Redundant Internals
Initial Hessian          InHess   .... Almloef's Model
Max. no of cycles        MaxIter  .... 3000

Convergence Tolerances:
Energy Change            TolE     ....  1.0000e-06 Eh
Max. Gradient            TolMAXG  ....  1.0000e-04 Eh/bohr
RMS Gradient             TolRMSG  ....  3.0000e-05 Eh/bohr
Max. Displacement        TolMAXD  ....  4.0000e-03 bohr
RMS Displacement         TolRMSD  ....  2.0000e-03 bohr
Strict Convergence                .... False

------------------------------------------------------------------------------
                        ORCA OPTIMIZATION COORDINATE SETUP
------------------------------------------------------------------------------

The optimization will be done in redundant internal coordinates (2022)
Making redundant internal coordinates   ...  (2022 redundants) done
Evaluating the initial hessian          ...  (Almloef) done
Evaluating the coordinates              ...  done
Calculating the B-matrix                .... done
Calculating the G-matrix                .... done
Diagonalizing the G-matrix              .... done
Small eigenvalue found = 2.669e-03
Small eigenvalue found = 9.964e-03
Small eigenvalue found = 1.283e-02
Small eigenvalue found = 1.544e-02
Small eigenvalue found = 2.817e-02
The first mode is                       ....   68
The number of degrees of freedom        ....   99

    -----------------------------------------------------------------
                    Redundant Internal Coordinates


    -----------------------------------------------------------------
         Definition                    Initial Value    Approx d2E/dq
    -----------------------------------------------------------------
      1. B(C   6,N   2)                  1.3891         0.561540   
      2. B(C   7,N   2)                  1.4690         0.418652   
      3. B(C   8,S   0)                  1.7387         0.467918   
      4. B(C   8,C   6)                  1.3622         0.692017   
      5. B(C   9,C   8)                  1.4853         0.440199   
      6. B(C  10,C   7)                  1.4971         0.421599   
      7. B(C  11,S   0)                  1.6856         0.568649   
      8. B(C  11,N   2)                  1.3235         0.714500   
      9. B(C  12,C   6)                  1.4807         0.447687   
     10. B(C  13,C   9)                  1.5248         0.380840   
     11. B(C  13,O   1)                  1.4181         0.504737   
     12. B(C  14,C  10)                  1.4091         0.582371   
     13. B(C  14,N   5)                  1.3606         0.623439   
     14. B(C  14,N   3)                  1.3336         0.688462   
     15. B(C  15,N   4)                  1.3278         0.703208   
     16. B(C  15,C  10)                  1.3825         0.642344   
     17. B(C  16,N   4)                  1.3417         0.668339   
     18. B(C  16,N   3)                  1.3322         0.692002   
     19. B(C  17,C  16)                  1.4874         0.436870   
     20. B(H  18,C   7)                  1.0912         0.358501   
     21. B(H  19,C   7)                  1.0882         0.362488   
     22. B(H  20,C   9)                  1.0889         0.361547   
     23. B(H  21,C   9)                  1.0887         0.361792   
     24. B(H  22,C  11)                  1.0754         0.379881   
     25. B(H  23,C  12)                  1.0913         0.358434   
     26. B(H  24,C  12)                  1.0872         0.363871   
     27. B(H  25,C  12)                  1.0803         0.373201   
     28. B(H  26,C  13)                  1.0932         0.355852   
     29. B(H  27,C  13)                  1.0934         0.355567   
     30. B(H  28,C  15)                  1.0855         0.366059   
     31. B(H  29,N   5)                  1.0028         0.444229   
     32. B(H  30,N   5)                  1.0068         0.437841   
     33. B(H  31,O   1)                  0.9625         0.515256   
     34. B(H  32,C  17)                  1.1088         0.336124   
     35. B(H  33,C  17)                  1.1295         0.311488   
     36. B(H  34,C  17)                  1.1120         0.332176   
     37. A(C   8,S   0,C  11)           91.0935         0.452641   
     38. A(C  13,O   1,H  31)          108.9772         0.356778   
     39. A(C   6,N   2,C  11)          114.7850         0.431717   
     40. A(C   7,N   2,C  11)          121.4616         0.409679   
     41. A(C   6,N   2,C   7)          123.3004         0.392663   
     42. A(C  14,N   3,C  16)          118.3967         0.445304   
     43. A(C  15,N   4,C  16)          116.0329         0.444209   
     44. A(C  14,N   5,H  29)          120.6293         0.360617   
     45. A(C  14,N   5,H  30)          114.7568         0.359728   
     46. A(H  29,N   5,H  30)          114.9814         0.305111   
     47. A(C   8,C   6,C  12)          127.8829         0.417622   
     48. A(N   2,C   6,C  12)          120.5908         0.399864   
     49. A(N   2,C   6,C   8)          111.5262         0.432068   
     50. A(C  10,C   7,H  19)          112.5560         0.331211   
     51. A(N   2,C   7,H  19)          106.8226         0.328837   
     52. A(C  10,C   7,H  18)          111.0706         0.330605   
     53. A(N   2,C   7,C  10)          112.1416         0.375949   
     54. A(H  18,C   7,H  19)          106.7625         0.290938   
     55. A(N   2,C   7,H  18)          107.1498         0.328237   
     56. A(S   0,C   8,C   6)          110.5156         0.444228   
     57. A(C   6,C   8,C   9)          128.8134         0.416369   
     58. A(S   0,C   8,C   9)          120.4231         0.409656   
     59. A(C   8,C   9,C  13)          111.6828         0.374978   
     60. A(C  13,C   9,H  20)          109.5013         0.325562   
     61. A(H  20,C   9,H  21)          106.6193         0.291237   
     62. A(C   8,C   9,H  21)          110.7932         0.333483   
     63. A(C   8,C   9,H  20)          109.1039         0.333446   
     64. A(C  13,C   9,H  21)          109.0051         0.325598   
     65. A(C  14,C  10,C  15)          115.4740         0.431948   
     66. A(C   7,C  10,C  15)          124.3302         0.407766   
     67. A(C   7,C  10,C  14)          120.1763         0.400773   
     68. A(S   0,C  11,N   2)          112.0737         0.459874   
     69. A(N   2,C  11,H  22)          123.2388         0.362569   
     70. A(S   0,C  11,H  22)          124.6840         0.369336   
     71. A(H  23,C  12,H  25)          108.4934         0.292265   
     72. A(H  24,C  12,H  25)          107.2171         0.292959   
     73. A(C   6,C  12,H  25)          110.1781         0.336149   
     74. A(H  23,C  12,H  24)          108.4731         0.291104   
     75. A(C   6,C  12,H  24)          110.9453         0.334737   
     76. A(C   6,C  12,H  23)          111.4025         0.333901   
     77. A(O   1,C  13,C   9)          107.4292         0.381544   
     78. A(H  26,C  13,H  27)          108.0407         0.289722   
     79. A(C   9,C  13,H  27)          109.8212         0.324670   
     80. A(O   1,C  13,H  27)          111.2909         0.338117   
     81. A(C   9,C  13,H  26)          108.4482         0.324713   
     82. A(O   1,C  13,H  26)          111.7697         0.338162   
     83. A(N   3,C  14,N   5)          116.4099         0.436988   
     84. A(N   5,C  14,C  10)          122.5653         0.426834   
     85. A(N   3,C  14,C  10)          120.9391         0.434505   
     86. A(C  10,C  15,H  28)          120.6950         0.356022   
     87. A(N   4,C  15,H  28)          115.2287         0.359307   
     88. A(N   4,C  15,C  10)          124.0759         0.443955   
     89. A(N   4,C  16,C  17)          117.2266         0.410574   
     90. A(N   3,C  16,C  17)          117.7205         0.413117   
     91. A(N   3,C  16,N   4)          125.0510         0.442920   
     92. A(H  33,C  17,H  34)          107.3651         0.280786   
     93. A(H  32,C  17,H  34)          111.8230         0.284119   
     94. A(C  16,C  17,H  34)          110.5573         0.328391   
     95. A(H  32,C  17,H  33)          108.0713         0.281300   
     96. A(C  16,C  17,H  33)          108.3786         0.324932   
     97. A(C  16,C  17,H  32)          110.5009         0.329032   
     98. D(C  12,C   6,N   2,C   7)     -6.6641         0.025191   
     99. D(C  12,C   6,N   2,C  11)   -179.0290         0.025191   
    100. D(C   8,C   6,N   2,C  11)      0.8513         0.025191   
    101. D(C   8,C   6,N   2,C   7)    173.2162         0.025191   
    102. D(H  19,C   7,N   2,C   6)     42.4140         0.014946   
    103. D(C  10,C   7,N   2,C  11)     90.5277         0.014946   
    104. D(H  18,C   7,N   2,C  11)    -31.5974         0.014946   
    105. D(C  10,C   7,N   2,C   6)    -81.3426         0.014946   
    106. D(H  18,C   7,N   2,C   6)    156.5323         0.014946   
    107. D(C   9,C   8,C   6,N   2)   -174.7429         0.033664   
    108. D(S   0,C   8,C   6,N   2)     -0.5354         0.033664   
    109. D(S   0,C   8,C   6,C  12)    179.3341         0.033664   
    110. D(C   9,C   8,C   6,C  12)      5.1266         0.033664   
    111. D(C   6,C   8,S   0,C  11)      0.1076         0.004725   
    112. D(C   9,C   8,S   0,C  11)    174.8750         0.004725   
    113. D(H  21,C   9,C   8,S   0)     36.7182         0.014298   
    114. D(H  20,C   9,C   8,C   6)    -32.4915         0.014298   
    115. D(H  20,C   9,C   8,S   0)    153.8018         0.014298   
    116. D(C  13,C   9,C   8,C   6)     88.6997         0.014298   
    117. D(C  13,C   9,C   8,S   0)    -85.0070         0.014298   
    118. D(C  15,C  10,C   7,H  18)    123.2367         0.013140   
    119. D(C  15,C  10,C   7,N   2)      3.3736         0.013140   
    120. D(C  14,C  10,C   7,H  19)     64.5648         0.013140   
    121. D(C  14,C  10,C   7,H  18)    -55.0852         0.013140   
    122. D(C  14,C  10,C   7,N   2)   -174.9483         0.013140   
    123. D(H  22,C  11,N   2,C   6)    178.5831         0.042423   
    124. D(S   0,C  11,N   2,C   7)   -173.2867         0.042423   
    125. D(S   0,C  11,N   2,C   6)     -0.7671         0.042423   
    126. D(N   2,C  11,S   0,C   8)      0.3706         0.006358   
    127. D(H  22,C  11,N   2,C   7)      6.0635         0.042423   
    128. D(H  22,C  11,S   0,C   8)   -178.9685         0.006358   
    129. D(H  25,C  12,C   6,N   2)    172.0573         0.014782   
    130. D(H  24,C  12,C   6,C   8)   -126.3776         0.014782   
    131. D(H  24,C  12,C   6,N   2)     53.4813         0.014782   
    132. D(H  23,C  12,C   6,C   8)    112.6629         0.014782   
    133. D(H  23,C  12,C   6,N   2)    -67.4782         0.014782   
    134. D(H  26,C  13,C   9,H  21)     59.9870         0.011557   
    135. D(H  26,C  13,C   9,H  20)    -56.3011         0.011557   
    136. D(H  26,C  13,C   9,C   8)   -177.2615         0.011557   
    137. D(O   1,C  13,C   9,H  21)   -179.0483         0.011557   
    138. D(O   1,C  13,C   9,H  20)     64.6635         0.011557   
    139. D(O   1,C  13,C   9,C   8)    -56.2968         0.011557   
    140. D(H  27,C  13,O   1,H  31)     65.7666         0.020153   
    141. D(H  26,C  13,O   1,H  31)    -55.1328         0.020153   
    142. D(C   9,C  13,O   1,H  31)   -173.9830         0.020153   
    143. D(N   5,C  14,C  10,C   7)      0.2281         0.023310   
    144. D(N   3,C  14,C  10,C  15)     -1.7235         0.023310   
    145. D(N   3,C  14,C  10,C   7)    176.7415         0.023310   
    146. D(C  10,C  14,N   5,H  30)   -173.2035         0.031500   
    147. D(C  10,C  14,N   5,H  29)    -28.7626         0.031500   
    148. D(N   3,C  14,N   5,H  30)     10.1353         0.031500   
    149. D(N   3,C  14,N   5,H  29)    154.5762         0.031500   
    150. D(C  10,C  14,N   3,C  16)      0.9554         0.035383   
    151. D(N   5,C  14,C  10,C  15)   -178.2369         0.023310   
    152. D(N   5,C  14,N   3,C  16)    177.6747         0.035383   
    153. D(H  28,C  15,C  10,C  14)   -178.8348         0.028681   
    154. D(H  28,C  15,C  10,C   7)      2.7721         0.028681   
    155. D(N   4,C  15,C  10,C  14)      0.9351         0.028681   
    156. D(N   4,C  15,C  10,C   7)   -177.4580         0.028681   
    157. D(H  28,C  15,N   4,C  16)   -179.6291         0.037064   
    158. D(C  10,C  15,N   4,C  16)      0.5896         0.037064   
    159. D(C  17,C  16,N   3,C  14)   -178.7287         0.035783   
    160. D(N   4,C  16,N   3,C  14)      0.7551         0.035783   
    161. D(C  17,C  16,N   4,C  15)    177.9679         0.033167   
    162. D(N   3,C  16,N   4,C  15)     -1.5182         0.033167   
    163. D(H  34,C  17,C  16,N   3)   -147.4611         0.014086   
    164. D(H  33,C  17,C  16,N   4)    -84.4044         0.014086   
    165. D(H  33,C  17,C  16,N   3)     95.1203         0.014086   
    166. D(H  32,C  17,C  16,N   4)    157.3533         0.014086   
    167. D(H  32,C  17,C  16,N   3)    -23.1219         0.014086   
    -----------------------------------------------------------------

Number of atoms                         .... 35
Number of degrees of freedom            .... 167


         *************************************************************
         *                GEOMETRY OPTIMIZATION CYCLE   1            *
         *************************************************************
---------------------------------
CARTESIAN COORDINATES (ANGSTROEM)
---------------------------------
  S     -0.280020    8.187050   -1.968123
  O     -2.184678    6.324849   -5.018493
  N     -2.706267    8.325288   -1.364868
  N     -6.471652   10.972537   -2.872293
  N     -4.799443   10.262538   -4.397865
  N     -6.453330   10.408461   -0.653000
  C     -2.593168    7.097677   -2.004913
  C     -3.992623    8.909783   -0.962893
  C     -1.311922    6.855691   -2.399118
  C     -0.782784    5.722872   -3.200949
  C     -4.682397    9.593392   -2.102252
  C     -1.578580    9.012873   -1.280290
  C     -3.780183    6.231960   -2.189604
  C     -0.838588    6.016474   -4.696131
  C     -5.878902   10.304405   -1.881990
  C     -4.208884    9.614117   -3.400925
  C     -5.915786   10.936584   -4.082438
  C     -6.573382   11.710524   -5.169142
  H     -3.788330    9.609778   -0.151096
  H     -4.586674    8.102487   -0.539150
  H     -1.366227    4.829446   -2.983914
  H      0.245397    5.498766   -2.921772
  H     -1.515216    9.988492   -0.832260
  H     -4.147123    5.850384   -1.235347
  H     -4.586088    6.775983   -2.675898
  H     -3.533891    5.391964   -2.822639
  H     -0.484478    5.133921   -5.235444
  H     -0.172123    6.849632   -4.935509
  H     -3.303628    9.078510   -3.669286
  H     -6.329536    9.686224    0.031654
  H     -7.358163   10.849890   -0.646535
  H     -2.263709    6.421549   -5.972827
  H     -7.643983   11.877374   -4.933951
  H     -6.069698   12.718748   -5.243315
  H     -6.439868   11.200026   -6.147941

----------------------------
CARTESIAN COORDINATES (A.U.)
----------------------------
  NO LB      ZA    FRAG     MASS         X           Y           Z
   0 S    16.0000    0    32.060   -0.529161   15.471283   -3.719214
   1 O     8.0000    0    15.999   -4.128443   11.952233   -9.483577
   2 N     7.0000    0    14.007   -5.114103   15.732515   -2.579226
   3 N     7.0000    0    14.007  -12.229649   20.735090   -5.427847
   4 N     7.0000    0    14.007   -9.069632   19.393386   -8.310761
   5 N     7.0000    0    14.007  -12.195026   19.669140   -1.233991
   6 C     6.0000    0    12.011   -4.900377   13.412666   -3.788737
   7 C     6.0000    0    12.011   -7.544963   16.837049   -1.819604
   8 C     6.0000    0    12.011   -2.479173   12.955378   -4.533675
   9 C     6.0000    0    12.011   -1.479247   10.814661   -6.048918
  10 C     6.0000    0    12.011   -8.848447   18.128884   -3.972680
  11 C     6.0000    0    12.011   -2.983085   17.031861   -2.419398
  12 C     6.0000    0    12.011   -7.143510   11.776699   -4.137752
  13 C     6.0000    0    12.011   -1.584703   11.369488   -8.874401
  14 C     6.0000    0    12.011  -11.109514   19.472504   -3.556446
  15 C     6.0000    0    12.011   -7.953639   18.168048   -6.426818
  16 C     6.0000    0    12.011  -11.179215   20.667149   -7.714690
  17 C     6.0000    0    12.011  -12.421892   22.129683   -9.768263
  18 H     1.0000    0     1.008   -7.158906   18.159848   -0.285530
  19 H     1.0000    0     1.008   -8.667558   15.311482   -1.018845
  20 H     1.0000    0     1.008   -2.581795    9.126331   -5.638779
  21 H     1.0000    0     1.008    0.463734   10.391161   -5.521350
  22 H     1.0000    0     1.008   -2.863344   18.875514   -1.572743
  23 H     1.0000    0     1.008   -7.836927   11.055623   -2.334467
  24 H     1.0000    0     1.008   -8.666450   12.804752   -5.056714
  25 H     1.0000    0     1.008   -6.678086   10.189334   -5.334015
  26 H     1.0000    0     1.008   -0.915531    9.701704   -9.893555
  27 H     1.0000    0     1.008   -0.325266   12.943928   -9.326760
  28 H     1.0000    0     1.008   -6.242953   17.155898   -6.933945
  29 H     1.0000    0     1.008  -11.961089   18.304310    0.059818
  30 H     1.0000    0     1.008  -13.904914   20.503321   -1.221773
  31 H     1.0000    0     1.008   -4.277790   12.134970  -11.287008
  32 H     1.0000    0     1.008  -14.445034   22.444983   -9.323815
  33 H     1.0000    0     1.008  -11.470066   24.034951   -9.908430
  34 H     1.0000    0     1.008  -12.169588   21.164981  -11.617924

--------------------------------
INTERNAL COORDINATES (ANGSTROEM)
--------------------------------
 S      0   0   0     0.000000000000     0.00000000     0.00000000
 O      1   0   0     4.049724303175     0.00000000     0.00000000
 N      1   2   0     2.503936750661    75.58942885     0.00000000
 N      3   1   2     4.843385266616   135.11289656   284.61062810
 N      4   3   1     2.372288460484    59.24037716    35.75647723
 N      4   3   1     2.289930217220    63.73716198   213.84195839
 C      3   1   2     1.389056481338    76.19028361    34.55952883
 C      3   1   2     1.468989106515   159.45509434   231.78404082
 C      7   3   1     1.362184396645   111.52622036     0.35854695
 C      9   7   3     1.485327966840   128.81335150   185.25710015
 C      8   3   1     1.497079864563   112.14155046    78.53368431
 C      3   1   2     1.323481059860    38.59773100   215.27670236
 C      7   3   1     1.480736145489   120.59075678   180.47821458
 C      2   1   3     1.418086360513    58.82391648   205.46036163
 C      4   3   1     1.333586390505    31.73375879   209.47643035
 C      5   4   3     1.327817236946    88.67226357     2.59854780
 C      4   3   1     1.332190042350    86.76581328    33.91986885
 C     17   4   3     1.487394282322   117.72051851   183.92642807
 H      8   3   1     1.091211706409   107.14979825   316.40857552
 H      8   3   1     1.088201072969   106.82257954   202.29030216
 H     10   9   7     1.088908001725   109.10387498   327.50848510
 H     10   9   7     1.088724033360   110.79322969   210.42491929
 H     12   3   1     1.075443419036   123.23879129   179.35021249
 H     13   7   3     1.091262118337   111.40247876   292.52181095
 H     13   7   3     1.087164058504   110.94526650    53.48134719
 H     13   7   3     1.080272284960   110.17806982   172.05730708
 H     14   2   1     1.093230589991   111.76968717   169.98385064
 H     14   2   1     1.093448268934   111.29094954   290.88332160
 H     16   5   4     1.085532161532   115.22868658   179.67281375
 H      6   4   3     1.002847176763   147.14451283   312.76970600
 H      6   4   3     1.006790178097    83.74400626   184.93617420
 H      2   1   3     0.962471738900   137.67013677   121.18921150
 H     18  17   4     1.108755762836   110.50087484   336.87808640
 H     18  17   4     1.129475828388   108.37862869    95.12033318
 H     18  17   4     1.111971709379   110.55729785   212.53893956

---------------------------
INTERNAL COORDINATES (A.U.)
---------------------------
 S      0   0   0     0.000000000000     0.00000000     0.00000000
 O      1   0   0     7.652869850885     0.00000000     0.00000000
 N      1   2   0     4.731754715410    75.58942885     0.00000000
 N      3   1   2     9.152671714974   135.11289656   284.61062810
 N      4   3   1     4.482975500976    59.24037716    35.75647723
 N      4   3   1     4.327340976336    63.73716198   213.84195839
 C      3   1   2     2.624936334276    76.19028361    34.55952883
 C      3   1   2     2.775987105026   159.45509434   231.78404082
 C      7   3   1     2.574155453560   111.52622036     0.35854695
 C      9   7   3     2.806863076383   128.81335150   185.25710015
 C      8   3   1     2.829070944632   112.14155046    78.53368431
 C      3   1   2     2.501016746568    38.59773100   215.27670236
 C      7   3   1     2.798185791573   120.59075678   180.47821458
 C      2   1   3     2.679794855619    58.82391648   205.46036163
 C      4   3   1     2.520113053980    31.73375879   209.47643035
 C      5   4   3     2.509210933727    88.67226357     2.59854780
 C      4   3   1     2.517474338378    86.76581328    33.91986885
 C     17   4   3     2.810767846749   117.72051851   183.92642807
 H      8   3   1     2.062091279241   107.14979825   316.40857552
 H      8   3   1     2.056402006550   106.82257954   202.29030216
 H     10   9   7     2.057737908296   109.10387498   327.50848510
 H     10   9   7     2.057390258469   110.79322969   210.42491929
 H     12   3   1     2.032293534507   123.23879129   179.35021249
 H     13   7   3     2.062186543979   111.40247876   292.52181095
 H     13   7   3     2.054442333214   110.94526650    53.48134719
 H     13   7   3     2.041418768639   110.17806982   172.05730708
 H     14   2   1     2.065906416308   111.76968717   169.98385064
 H     14   2   1     2.066317769895   111.29094954   290.88332160
 H     16   5   4     2.051358494860   115.22868658   179.67281375
 H      6   4   3     1.895106518259   147.14451283   312.76970600
 H      6   4   3     1.902557710926    83.74400626   184.93617420
 H      2   1   3     1.818807998161   137.67013677   121.18921150
 H     18  17   4     2.095244741168   110.50087484   336.87808640
 H     18  17   4     2.134399990537   108.37862869    95.12033318
 H     18  17   4     2.101321999394   110.55729785   212.53893956

---------------------
BASIS SET INFORMATION
---------------------
There are 5 groups of distinct atoms

 Group   1 Type S   : 14s9p1d contracted to 5s4p1d pattern {73211/6111/1}
 Group   2 Type O   : 11s6p2d contracted to 5s3p2d pattern {62111/411/11}
 Group   3 Type N   : 11s6p1d contracted to 5s3p1d pattern {62111/411/1}
 Group   4 Type C   : 11s6p1d contracted to 5s3p1d pattern {62111/411/1}
 Group   5 Type H   : 5s contracted to 3s pattern {311}

Atom   0S    basis set group =>   1
Atom   1O    basis set group =>   2
Atom   2N    basis set group =>   3
Atom   3N    basis set group =>   3
Atom   4N    basis set group =>   3
Atom   5N    basis set group =>   3
Atom   6C    basis set group =>   4
Atom   7C    basis set group =>   4
Atom   8C    basis set group =>   4
Atom   9C    basis set group =>   4
Atom  10C    basis set group =>   4
Atom  11C    basis set group =>   4
Atom  12C    basis set group =>   4
Atom  13C    basis set group =>   4
Atom  14C    basis set group =>   4
Atom  15C    basis set group =>   4
Atom  16C    basis set group =>   4
Atom  17C    basis set group =>   4
Atom  18H    basis set group =>   5
Atom  19H    basis set group =>   5
Atom  20H    basis set group =>   5
Atom  21H    basis set group =>   5
Atom  22H    basis set group =>   5
Atom  23H    basis set group =>   5
Atom  24H    basis set group =>   5
Atom  25H    basis set group =>   5
Atom  26H    basis set group =>   5
Atom  27H    basis set group =>   5
Atom  28H    basis set group =>   5
Atom  29H    basis set group =>   5
Atom  30H    basis set group =>   5
Atom  31H    basis set group =>   5
Atom  32H    basis set group =>   5
Atom  33H    basis set group =>   5
Atom  34H    basis set group =>   5
---------------------------------
AUXILIARY/J BASIS SET INFORMATION
---------------------------------
There are 5 groups of distinct atoms

 Group   1 Type S   : 14s5p5d2f1g contracted to 8s4p3d1f1g pattern {71111111/2111/311/2/1}
 Group   2 Type O   : 8s3p3d contracted to 6s3p3d pattern {311111/111/111}
 Group   3 Type N   : 8s3p3d contracted to 6s3p3d pattern {311111/111/111}
 Group   4 Type C   : 8s3p3d contracted to 6s3p3d pattern {311111/111/111}
 Group   5 Type H   : 5s2p contracted to 3s1p pattern {311/2}

Atom   0S    basis set group =>   1
Atom   1O    basis set group =>   2
Atom   2N    basis set group =>   3
Atom   3N    basis set group =>   3
Atom   4N    basis set group =>   3
Atom   5N    basis set group =>   3
Atom   6C    basis set group =>   4
Atom   7C    basis set group =>   4
Atom   8C    basis set group =>   4
Atom   9C    basis set group =>   4
Atom  10C    basis set group =>   4
Atom  11C    basis set group =>   4
Atom  12C    basis set group =>   4
Atom  13C    basis set group =>   4
Atom  14C    basis set group =>   4
Atom  15C    basis set group =>   4
Atom  16C    basis set group =>   4
Atom  17C    basis set group =>   4
Atom  18H    basis set group =>   5
Atom  19H    basis set group =>   5
Atom  20H    basis set group =>   5
Atom  21H    basis set group =>   5
Atom  22H    basis set group =>   5
Atom  23H    basis set group =>   5
Atom  24H    basis set group =>   5
Atom  25H    basis set group =>   5
Atom  26H    basis set group =>   5
Atom  27H    basis set group =>   5
Atom  28H    basis set group =>   5
Atom  29H    basis set group =>   5
Atom  30H    basis set group =>   5
Atom  31H    basis set group =>   5
Atom  32H    basis set group =>   5
Atom  33H    basis set group =>   5
Atom  34H    basis set group =>   5


           ************************************************************
           *        Program running with 16 parallel MPI-processes    *
           *              working on a common directory               *
           ************************************************************
------------------------------------------------------------------------------
                             ORCA STARTUP CALCULATIONS
                           -- RI-GTO INTEGRALS CHOSEN --
------------------------------------------------------------------------------
------------------------------------------------------------------------------
                   ___                                                        
                  /   \      - P O W E R E D   B Y -                         
                 /     \                                                     
                 |  |  |   _    _      __       _____    __    __             
                 |  |  |  | |  | |    /  \     |  _  \  |  |  /  |          
                  \  \/   | |  | |   /    \    | | | |  |  | /  /          
                 / \  \   | |__| |  /  /\  \   | |_| |  |  |/  /          
                |  |  |   |  __  | /  /__\  \  |    /   |      \           
                |  |  |   | |  | | |   __   |  |    \   |  |\   \          
                \     /   | |  | | |  |  |  |  | |\  \  |  | \   \       
                 \___/    |_|  |_| |__|  |__|  |_| \__\ |__|  \__/        
                                                                              
                      - O R C A' S   B I G   F R I E N D -                    
                                      &                                       
                       - I N T E G R A L  F E E D E R -                       
                                                                              
 v1 FN, 2020, v2 2021, v3 2022-2024                                           
------------------------------------------------------------------------------


----------------------
SHARK INTEGRAL PACKAGE
----------------------

Number of atoms                             ...     35
Number of basis functions                   ...    401
Number of shells                            ...    215
Maximum angular momentum                    ...      2
Integral batch strategy                     ... SHARK/LIBINT Hybrid
RI-J (if used) integral strategy            ... SPLIT-RIJ (Revised 2003 algorithm where possible)
Printlevel                                  ...      1
Contraction scheme used                     ... SEGMENTED contraction
Prescreening option                         ... SCHWARTZ
   Thresh                                   ... 2.500e-11
   Tcut                                     ... 2.500e-12
   Tpresel                                  ... 2.500e-12 
Coulomb Range Separation                    ... NOT USED
Exchange Range Separation                   ... NOT USED
Multipole approximations                    ... NOT USED
Finite Nucleus Model                        ... NOT USED
CABS basis                                  ... NOT available
Auxiliary Coulomb fitting basis             ... AVAILABLE
   # of basis functions in Aux-J            ...    663
   # of shells in Aux-J                     ...    289
   Maximum angular momentum in Aux-J        ...      4
Auxiliary J/K fitting basis                 ... NOT available
Auxiliary Correlation fitting basis         ... NOT available
Auxiliary 'external' fitting basis          ... NOT available

Checking pre-screening integrals            ... done (  0.0 sec) Dimension = 215
Check shell pair data                       ... done (  0.0 sec)
Shell pair information
Shell pair cut-off parameter TPreSel        ...   2.5e-12
Total number of shell pairs                 ...     23220
Shell pairs after pre-screening             ...     17830
Total number of primitive shell pairs       ...     87201
Primitive shell pairs kept                  ...     42661
          la=0 lb=0:   7236 shell pairs
          la=1 lb=0:   6329 shell pairs
          la=1 lb=1:   1380 shell pairs
          la=2 lb=0:   1888 shell pairs
          la=2 lb=1:    861 shell pairs
          la=2 lb=2:    136 shell pairs

Calculating one electron integrals          ... done (  0.0 sec)
Calculating RI/J V-Matrix + Cholesky decomp.... done (  0.0 sec)
Calculating Nuclear repulsion               ... done (  0.0 sec) ENN=   1477.486121399495 Eh

Diagonalization of the overlap matrix:
Smallest eigenvalue                        ... 5.220e-05
Time for diagonalization                   ...    0.020 sec
Threshold for overlap eigenvalues          ... 1.000e-07
Number of eigenvalues below threshold      ... 0
Time for construction of square roots      ...    0.007 sec
Total time needed                          ...    0.028 sec

-------------------
DFT GRID GENERATION
-------------------

General Integration Accuracy     IntAcc      ... 4.959
Radial Grid Type                 RadialGrid  ... OptM3 with GC (2021)
Angular Grid (max. ang.)         AngularGrid ... 6 (Lebedev-590)
Angular grid pruning method      GridPruning ... 4 (adaptive)
Weight generation scheme         WeightScheme... mBecke (2022)
Basis function cutoff            BFCut       ... 1.0000e-11
Integration weight cutoff        WCut        ... 1.0000e-14
Partially contracted basis set               ... off
Rotationally invariant grid construction     ... off
Angular grids for H and He will be reduced by one unit
Diffuse basis detected: some atoms will have their outermost
                        angular grid increased by 1.

Total number of grid points                  ...   402993
Total number of batches                      ...     6315
Average number of points per batch           ...       63
Average number of grid points per atom       ...    11514
Initializing property integral containers    ... done (  0.0 sec)

SHARK setup successfully completed in   3.0 seconds

Maximum memory used throughout the entire STARTUP-calculation: 93.7 MB


           ************************************************************
           *        Program running with 16 parallel MPI-processes    *
           *              working on a common directory               *
           ************************************************************
-------------------------------------------------------------------------------
                                 ORCA GUESS
                   Start orbitals & Density for SCF / CASSCF
-------------------------------------------------------------------------------

------------
SCF SETTINGS
------------
Hamiltonian:
 Density Functional     Method          .... DFT(GTOs)
 Exchange Functional    Exchange        .... B973C
 Correlation Functional Correlation     .... B973C
 Gradients option       PostSCFGGA      .... off
 RI-approximation to the Coulomb term is turned on
   Number of AuxJ basis functions       .... 663


General Settings:
 Integral files         IntName         .... m1_01_Vitamin_B1-GFN1_009-B97-3C-TZ_0_pos-B97-3C-TZ
 Hartree-Fock type      HFTyp           .... RHF
 Total Charge           Charge          ....    1
 Multiplicity           Mult            ....    1
 Number of Electrons    NEL             ....  140
 Basis Dimension        Dim             ....  401
 Nuclear Repulsion      ENuc            ....   1477.4861213995 Eh

Convergence Acceleration:
 AO-DIIS                CNVDIIS         .... on
   Start iteration      DIISMaxIt       ....    12
   Startup error        DIISStart       ....  0.200000
   # of expansion vecs  DIISMaxEq       ....     5
   Bias factor          DIISBfac        ....   1.050
   Max. coefficient     DIISMaxC        ....  10.000
 MO-DIIS                CNVKDIIS        .... off
 Trust-Rad. Augm. Hess. CNVTRAH         .... off
 SOSCF                  CNVSOSCF        .... on
   Start iteration      SOSCFMaxIt      ....   150
   Startup grad/error   SOSCFStart      ....  0.003300
   Hessian update       SOSCFHessUp     .... L-BFGS
 Level Shifting         CNVShift        .... on
   Level shift para.    LevelShift      ....    0.2500
   Turn off err/grad.   ShiftErr        ....    0.0010
 Zerner damping         CNVZerner       .... off
 Static damping         CNVDamp         .... on
   Fraction old density DampFac         ....    0.7000
   Max. Damping (<1)    DampMax         ....    0.9800
   Min. Damping (>=0)   DampMin         ....    0.0000
   Turn off err/grad.   DampErr         ....    0.1000

SCF Procedure:
 Maximum # iterations   MaxIter         ....   800
 SCF integral mode      SCFMode         .... Direct
   Integral package                     .... SHARK and LIBINT hybrid scheme
 Reset frequency        DirectResetFreq ....    20
 Integral Threshold     Thresh          ....  2.500e-11 Eh
 Primitive CutOff       TCut            ....  2.500e-12 Eh

Convergence Tolerance:
 Convergence Check Mode ConvCheckMode   .... Total+1el-Energy
 Convergence forced     ConvForced      .... 0
 Energy Change          TolE            ....  1.000e-08 Eh
 1-El. energy change                    ....  1.000e-05 Eh
 Orbital Gradient       TolG            ....  1.000e-05
 Orbital Rotation angle TolX            ....  1.000e-05
 DIIS Error             TolErr          ....  5.000e-07

--------------------------------
INITIAL GUESS: MINIMAL BASIS EHT
--------------------------------
The minimal basis has 111 functions
EHT matrix was diagonalized
Basis set overlap was calculated now projecting the orbitals
Using GuessMode=FMatrix for the initial guess
C*T matrix was formed
Effective Fockian was calculated
Effective Fockian was diagonalized
Initial density was built
                      ------------------
                      INITIAL GUESS DONE
                      ------------------
             **** ENERGY FILE WAS UPDATED (m1_01_Vitamin_B1-GFN1_009-B97-3C-TZ_0_pos-B97-3C-TZ.en.tmp) ****
Finished Guess after   0.2 sec
Maximum memory used throughout the entire GUESS-calculation: 32.5 MB


           ************************************************************
           *        Program running with 16 parallel MPI-processes    *
           *              working on a common directory               *
           ************************************************************

-------------------------------------------------------------------------------------------
                                      ORCA LEAN-SCF
                              memory conserving SCF solver
-------------------------------------------------------------------------------------------

----------------------------------------D-I-I-S--------------------------------------------
Iteration    Energy (Eh)           Delta-E    RMSDP     MaxDP     DIISErr   Damp  Time(sec)
-------------------------------------------------------------------------------------------
               ***  Starting incremental Fock matrix formation  ***
    1    -1156.3726154245491671     0.00e+00  5.85e-03  3.47e-01  8.23e-01  0.700   0.6
Warning: op=0 Small HOMO/LUMO gap (  -0.096) - skipping pre-diagonalization
         Will do a full diagonalization
    2    -1157.3129239467234584    -9.40e-01  4.33e-03  2.02e-01  5.63e-01  0.700   0.6
    3    -1157.8515046147222165    -5.39e-01  2.54e-03  7.31e-02  3.80e-01  0.700   0.5
    4    -1158.2246959983490342    -3.73e-01  1.78e-03  5.68e-02  2.56e-01  0.700   0.5
                               ***Turning on AO-DIIS***
    5    -1158.4895205271122904    -2.65e-01  1.47e-03  5.00e-02  1.72e-01  0.700   0.5
    6    -1158.6741137108165276    -1.85e-01  1.05e-03  3.86e-02  1.21e-01  0.700   0.5
    7    -1158.8041880054579451    -1.30e-01  7.35e-04  2.70e-02  8.53e-02  0.700   0.5
    8    -1158.8957663772830529    -9.16e-02  1.73e-03  5.78e-02  6.02e-02  0.000   0.5
    9    -1159.1091623942079423    -2.13e-01  2.68e-04  1.28e-02  5.11e-03  0.000   0.5
   10    -1159.1096635617604989    -5.01e-04  1.15e-04  5.52e-03  3.47e-03  0.000   0.5
                              *** Initializing SOSCF ***
---------------------------------------S-O-S-C-F--------------------------------------
Iteration    Energy (Eh)           Delta-E    RMSDP     MaxDP     MaxGrad    Time(sec)
--------------------------------------------------------------------------------------
   11    -1159.1098901027435204    -2.27e-04  7.91e-05  3.35e-03  1.42e-03     0.5
               *** Restarting incremental Fock matrix formation ***
   12    -1159.1099715269779153    -8.14e-05  1.81e-04  8.12e-03  1.98e-03     0.6
   13    -1159.1100653846242494    -9.39e-05  1.92e-04  1.30e-02  5.46e-04     0.5
   14    -1159.1100141113092832     5.13e-05  1.17e-04  8.60e-03  1.34e-03     0.5
   15    -1159.1100834254775691    -6.93e-05  1.11e-05  6.21e-04  7.11e-05     0.5
   16    -1159.1100826448396219     7.81e-07  7.51e-06  3.70e-04  1.52e-04     0.5
   17    -1159.1100837119170137    -1.07e-06  3.41e-06  1.89e-04  2.49e-05     0.5
   18    -1159.1100836468440320     6.51e-08  2.65e-06  1.53e-04  5.22e-05     0.5
   19    -1159.1100837091998983    -6.24e-08  2.72e-06  3.05e-04  2.07e-06     0.5
                  *** Gradient check signals convergence ***

               *****************************************************
               *                     SUCCESS                       *
               *           SCF CONVERGED AFTER  19 CYCLES          *
               *****************************************************

             **** ENERGY FILE WAS UPDATED (m1_01_Vitamin_B1-GFN1_009-B97-3C-TZ_0_pos-B97-3C-TZ.en.tmp) ****

----------------
TOTAL SCF ENERGY
----------------

Total Energy       :      -1159.11008370919990 Eh          -31540.98889 eV

Components:
Nuclear Repulsion  :       1477.48612139949546 Eh           40204.44132 eV
Electronic Energy  :      -2636.59620510869536 Eh          -71745.43021 eV
One Electron Energy:      -4499.85569003442561 Eh         -122447.29843 eV
Two Electron Energy:       1863.25948492573025 Eh           50701.86822 eV

Virial components:
Potential Energy   :      -2314.64134514588204 Eh          -62984.59308 eV
Kinetic Energy     :       1155.53126143668237 Eh           31443.60419 eV
Virial Ratio       :          2.00309712284899

DFT components:
N(Alpha)           :       69.999982964155 electrons
N(Beta)            :       69.999982964155 electrons
N(Total)           :      139.999965928311 electrons
E(XC)              :     -132.580522877121 Eh       

---------------
SCF CONVERGENCE
---------------

  Last Energy change         ...    6.2356e-08  Tolerance :   1.0000e-08
  Last MAX-Density change    ...    3.0510e-04  Tolerance :   1.0000e-07
  Last RMS-Density change    ...    2.7236e-06  Tolerance :   5.0000e-09
  Last DIIS Error            ...    1.4160e-03  Tolerance :   5.0000e-07
  Last Orbital Gradient      ...    2.0687e-06  Tolerance :   1.0000e-05
  Last Orbital Rotation      ...    8.0712e-06  Tolerance :   1.0000e-05


----------------
ORBITAL ENERGIES
----------------

  NO   OCC          E(Eh)            E(eV) 
   0   2.0000     -88.245622     -2401.2854 
   1   2.0000     -18.870853      -513.5020 
   2   2.0000     -14.246334      -387.6624 
   3   2.0000     -14.124116      -384.3367 
   4   2.0000     -14.084210      -383.2508 
   5   2.0000     -14.078743      -383.1021 
   6   2.0000     -10.143248      -276.0118 
   7   2.0000     -10.109045      -275.0811 
   8   2.0000     -10.104104      -274.9466 
   9   2.0000     -10.099829      -274.8303 
  10   2.0000     -10.087880      -274.5052 
  11   2.0000     -10.069929      -274.0167 
  12   2.0000     -10.060543      -273.7613 
  13   2.0000     -10.047800      -273.4145 
  14   2.0000     -10.047336      -273.4019 
  15   2.0000     -10.037741      -273.1408 
  16   2.0000     -10.031794      -272.9790 
  17   2.0000      -9.975695      -271.4525 
  18   2.0000      -7.935929      -215.9476 
  19   2.0000      -5.966041      -162.3442 
  20   2.0000      -5.960487      -162.1931 
  21   2.0000      -5.958565      -162.1408 
  22   2.0000      -1.118241       -30.4289 
  23   2.0000      -1.069595       -29.1052 
  24   2.0000      -1.026187       -27.9240 
  25   2.0000      -0.972333       -26.4585 
  26   2.0000      -0.954827       -25.9822 
  27   2.0000      -0.904828       -24.6216 
  28   2.0000      -0.901193       -24.5227 
  29   2.0000      -0.870799       -23.6956 
  30   2.0000      -0.840577       -22.8733 
  31   2.0000      -0.806499       -21.9460 
  32   2.0000      -0.789332       -21.4788 
  33   2.0000      -0.750932       -20.4339 
  34   2.0000      -0.739658       -20.1271 
  35   2.0000      -0.711920       -19.3723 
  36   2.0000      -0.694324       -18.8935 
  37   2.0000      -0.673852       -18.3365 
  38   2.0000      -0.670380       -18.2420 
  39   2.0000      -0.637509       -17.3475 
  40   2.0000      -0.619019       -16.8444 
  41   2.0000      -0.607235       -16.5237 
  42   2.0000      -0.604758       -16.4563 
  43   2.0000      -0.587095       -15.9757 
  44   2.0000      -0.575320       -15.6553 
  45   2.0000      -0.558943       -15.2096 
  46   2.0000      -0.551462       -15.0060 
  47   2.0000      -0.547153       -14.8888 
  48   2.0000      -0.535821       -14.5804 
  49   2.0000      -0.531120       -14.4525 
  50   2.0000      -0.511865       -13.9286 
  51   2.0000      -0.510374       -13.8880 
  52   2.0000      -0.507743       -13.8164 
  53   2.0000      -0.499131       -13.5820 
  54   2.0000      -0.498266       -13.5585 
  55   2.0000      -0.496865       -13.5204 
  56   2.0000      -0.487683       -13.2705 
  57   2.0000      -0.467211       -12.7135 
  58   2.0000      -0.453049       -12.3281 
  59   2.0000      -0.447236       -12.1699 
  60   2.0000      -0.433846       -11.8056 
  61   2.0000      -0.428050       -11.6478 
  62   2.0000      -0.424474       -11.5505 
  63   2.0000      -0.414474       -11.2784 
  64   2.0000      -0.383558       -10.4371 
  65   2.0000      -0.360756        -9.8167 
  66   2.0000      -0.358317        -9.7503 
  67   2.0000      -0.355267        -9.6673 
  68   2.0000      -0.321998        -8.7620 
  69   2.0000      -0.310612        -8.4522 
  70   0.0000      -0.240736        -6.5508 
  71   0.0000      -0.176210        -4.7949 
  72   0.0000      -0.172326        -4.6892 
  73   0.0000      -0.163141        -4.4393 
  74   0.0000      -0.149197        -4.0599 
  75   0.0000      -0.117558        -3.1989 
  76   0.0000      -0.104850        -2.8531 
  77   0.0000      -0.098717        -2.6862 
  78   0.0000      -0.085892        -2.3372 
  79   0.0000      -0.077800        -2.1170 
  80   0.0000      -0.067451        -1.8354 
*Only the first 10 virtual orbitals were printed.

                    ********************************
                    * MULLIKEN POPULATION ANALYSIS *
                    ********************************

-----------------------
MULLIKEN ATOMIC CHARGES
-----------------------
   0 S :    0.274243
   1 O :   -0.552794
   2 N :    0.058801
   3 N :   -0.145627
   4 N :   -0.079868
   5 N :   -0.610641
   6 C :   -0.025817
   7 C :   -0.574940
   8 C :    0.044447
   9 C :   -0.422253
  10 C :   -0.008866
  11 C :   -0.102946
  12 C :   -0.559653
  13 C :   -0.139204
  14 C :    0.219751
  15 C :   -0.087800
  16 C :    0.096620
  17 C :   -0.534577
  18 H :    0.250184
  19 H :    0.236505
  20 H :    0.242796
  21 H :    0.220439
  22 H :    0.277643
  23 H :    0.220369
  24 H :    0.210954
  25 H :    0.225498
  26 H :    0.200683
  27 H :    0.168793
  28 H :    0.167686
  29 H :    0.340729
  30 H :    0.365449
  31 H :    0.448445
  32 H :    0.193008
  33 H :    0.192109
  34 H :    0.189835
Sum of atomic charges:    1.0000000

--------------------------------
MULLIKEN REDUCED ORBITAL CHARGES
--------------------------------
  0 S s       :     5.896178  s :     5.896178
      pz      :     3.375504  p :     9.711507
      px      :     3.279827
      py      :     3.056176
      dz2     :     0.018180  d :     0.118072
      dxz     :     0.022038
      dyz     :     0.016185
      dx2y2   :     0.020320
      dxy     :     0.041350

  1 O s       :     3.819275  s :     3.819275
      pz      :     1.441949  p :     4.718446
      px      :     1.397362
      py      :     1.879135
      dz2     :     0.014974  d :     0.015073
      dxz     :    -0.001364
      dyz     :     0.001088
      dx2y2   :     0.002835
      dxy     :    -0.002461

  2 N s       :     3.281748  s :     3.281748
      pz      :     1.356837  p :     3.600843
      px      :     1.092890
      py      :     1.151116
      dz2     :     0.006730  d :     0.058609
      dxz     :     0.009764
      dyz     :     0.009397
      dx2y2   :     0.016312
      dxy     :     0.016406

  3 N s       :     3.480912  s :     3.480912
      pz      :     1.020971  p :     3.619926
      px      :     1.361851
      py      :     1.237104
      dz2     :     0.008105  d :     0.044788
      dxz     :     0.014686
      dyz     :     0.009435
      dx2y2   :     0.006480
      dxy     :     0.006082

  4 N s       :     3.485875  s :     3.485875
      pz      :     1.382680  p :     3.548381
      px      :     1.071772
      py      :     1.093929
      dz2     :     0.010160  d :     0.045612
      dxz     :     0.011636
      dyz     :     0.010669
      dx2y2   :     0.006320
      dxy     :     0.006827

  5 N s       :     3.455778  s :     3.455778
      pz      :     1.255880  p :     4.121228
      px      :     1.403403
      py      :     1.461945
      dz2     :     0.008775  d :     0.033635
      dxz     :     0.004506
      dyz     :     0.010501
      dx2y2   :     0.006316
      dxy     :     0.003536

  6 C s       :     3.145621  s :     3.145621
      pz      :     0.924339  p :     2.820413
      px      :     1.002313
      py      :     0.893762
      dz2     :     0.006807  d :     0.059782
      dxz     :     0.009534
      dyz     :     0.010412
      dx2y2   :     0.020059
      dxy     :     0.012971

  7 C s       :     3.461758  s :     3.461758
      pz      :     1.037472  p :     3.057673
      px      :     0.903621
      py      :     1.116580
      dz2     :     0.008214  d :     0.055509
      dxz     :     0.011351
      dyz     :     0.014318
      dx2y2   :     0.008355
      dxy     :     0.013270

  8 C s       :     3.019156  s :     3.019156
      pz      :     1.102143  p :     2.890107
      px      :     1.017999
      py      :     0.769966
      dz2     :     0.006696  d :     0.046290
      dxz     :     0.008845
      dyz     :     0.006078
      dx2y2   :     0.011124
      dxy     :     0.013547

  9 C s       :     3.230321  s :     3.230321
      pz      :     0.949527  p :     3.147282
      px      :     1.214398
      py      :     0.983357
      dz2     :     0.011875  d :     0.044649
      dxz     :     0.005671
      dyz     :     0.010446
      dx2y2   :     0.007971
      dxy     :     0.008687

 10 C s       :     3.067325  s :     3.067325
      pz      :     0.876490  p :     2.897165
      px      :     0.946221
      py      :     1.074454
      dz2     :     0.011866  d :     0.044376
      dxz     :     0.011746
      dyz     :     0.008676
      dx2y2   :     0.005422
      dxy     :     0.006666

 11 C s       :     3.170331  s :     3.170331
      pz      :     1.025530  p :     2.880580
      px      :     0.840771
      py      :     1.014280
      dz2     :     0.004941  d :     0.052035
      dxz     :     0.011284
      dyz     :     0.006788
      dx2y2   :     0.014061
      dxy     :     0.014960

 12 C s       :     3.280490  s :     3.280490
      pz      :     1.144340  p :     3.241701
      px      :     1.011308
      py      :     1.086053
      dz2     :     0.006165  d :     0.037463
      dxz     :     0.007142
      dyz     :     0.008665
      dx2y2   :     0.004423
      dxy     :     0.011067

 13 C s       :     3.231837  s :     3.231837
      pz      :     0.940728  p :     2.842632
      px      :     0.777964
      py      :     1.123940
      dz2     :     0.013465  d :     0.064734
      dxz     :     0.010311
      dyz     :     0.008553
      dx2y2   :     0.011833
      dxy     :     0.020573

 14 C s       :     3.015749  s :     3.015749
      pz      :     0.817601  p :     2.680793
      px      :     0.915245
      py      :     0.947947
      dz2     :     0.024038  d :     0.083707
      dxz     :     0.021912
      dyz     :     0.017113
      dx2y2   :     0.010117
      dxy     :     0.010527

 15 C s       :     3.183752  s :     3.183752
      pz      :     0.944765  p :     2.843905
      px      :     0.968345
      py      :     0.930794
      dz2     :     0.019822  d :     0.060143
      dxz     :     0.013524
      dyz     :     0.012437
      dx2y2   :     0.005155
      dxy     :     0.009205

 16 C s       :     3.156091  s :     3.156091
      pz      :     0.912109  p :     2.665349
      px      :     0.873758
      py      :     0.879482
      dz2     :     0.020079  d :     0.081940
      dxz     :     0.023563
      dyz     :     0.016135
      dx2y2   :     0.011471
      dxy     :     0.010693

 17 C s       :     3.314505  s :     3.314505
      pz      :     1.025738  p :     3.184574
      px      :     1.087474
      py      :     1.071363
      dz2     :     0.008442  d :     0.035497
      dxz     :     0.005358
      dyz     :     0.008190
      dx2y2   :     0.007529
      dxy     :     0.005979

 18 H s       :     0.749816  s :     0.749816

 19 H s       :     0.763495  s :     0.763495

 20 H s       :     0.757204  s :     0.757204

 21 H s       :     0.779561  s :     0.779561

 22 H s       :     0.722357  s :     0.722357

 23 H s       :     0.779631  s :     0.779631

 24 H s       :     0.789046  s :     0.789046

 25 H s       :     0.774502  s :     0.774502

 26 H s       :     0.799317  s :     0.799317

 27 H s       :     0.831207  s :     0.831207

 28 H s       :     0.832314  s :     0.832314

 29 H s       :     0.659271  s :     0.659271

 30 H s       :     0.634551  s :     0.634551

 31 H s       :     0.551555  s :     0.551555

 32 H s       :     0.806992  s :     0.806992

 33 H s       :     0.807891  s :     0.807891

 34 H s       :     0.810165  s :     0.810165



                     *******************************
                     * LOEWDIN POPULATION ANALYSIS *
                     *******************************

----------------------
LOEWDIN ATOMIC CHARGES
----------------------
   0 S :    0.735999
   1 O :   -0.756257
   2 N :   -0.043081
   3 N :   -0.188957
   4 N :   -0.195559
   5 N :   -0.409795
   6 C :   -0.008295
   7 C :   -0.159575
   8 C :   -0.227192
   9 C :   -0.261135
  10 C :   -0.163058
  11 C :   -0.246978
  12 C :   -0.396969
  13 C :    0.032296
  14 C :    0.102533
  15 C :   -0.044994
  16 C :    0.078877
  17 C :   -0.404641
  18 H :    0.188337
  19 H :    0.183830
  20 H :    0.193385
  21 H :    0.188047
  22 H :    0.208483
  23 H :    0.183592
  24 H :    0.195075
  25 H :    0.197207
  26 H :    0.182021
  27 H :    0.169101
  28 H :    0.166131
  29 H :    0.284596
  30 H :    0.301488
  31 H :    0.375028
  32 H :    0.176168
  33 H :    0.185956
  34 H :    0.178337

-------------------------------
LOEWDIN REDUCED ORBITAL CHARGES
-------------------------------
  0 S s       :     5.355826  s :     5.355826
      pz      :     3.359222  p :     9.773914
      px      :     3.336038
      py      :     3.078654
      dz2     :     0.020863  d :     0.134261
      dxz     :     0.023708
      dyz     :     0.020098
      dx2y2   :     0.021497
      dxy     :     0.048095

  1 O s       :     3.556551  s :     3.556551
      pz      :     1.459306  p :     4.866098
      px      :     1.516187
      py      :     1.890605
      dz2     :     0.083918  d :     0.333608
      dxz     :     0.072968
      dyz     :     0.029439
      dx2y2   :     0.066241
      dxy     :     0.081043

  2 N s       :     3.075261  s :     3.075261
      pz      :     1.347759  p :     3.851906
      px      :     1.246476
      py      :     1.257671
      dz2     :     0.012624  d :     0.115914
      dxz     :     0.018031
      dyz     :     0.017889
      dx2y2   :     0.034083
      dxy     :     0.033287

  3 N s       :     3.216978  s :     3.216978
      pz      :     1.171228  p :     3.889957
      px      :     1.435033
      py      :     1.283696
      dz2     :     0.018441  d :     0.082022
      dxz     :     0.028041
      dyz     :     0.018942
      dx2y2   :     0.007855
      dxy     :     0.008743

  4 N s       :     3.233500  s :     3.233500
      pz      :     1.483297  p :     3.877394
      px      :     1.221761
      py      :     1.172336
      dz2     :     0.017270  d :     0.084665
      dxz     :     0.020921
      dyz     :     0.017697
      dx2y2   :     0.012703
      dxy     :     0.016074

  5 N s       :     3.191686  s :     3.191686
      pz      :     1.298474  p :     4.162396
      px      :     1.391073
      py      :     1.472849
      dz2     :     0.015671  d :     0.055713
      dxz     :     0.009606
      dyz     :     0.016264
      dx2y2   :     0.008790
      dxy     :     0.005382

  6 C s       :     2.843858  s :     2.843858
      pz      :     0.973531  p :     3.038032
      px      :     1.108464
      py      :     0.956036
      dz2     :     0.013335  d :     0.126406
      dxz     :     0.018380
      dyz     :     0.022515
      dx2y2   :     0.044478
      dxy     :     0.027699

  7 C s       :     2.906769  s :     2.906769
      pz      :     1.108303  p :     3.151012
      px      :     0.941594
      py      :     1.101115
      dz2     :     0.014874  d :     0.101794
      dxz     :     0.021491
      dyz     :     0.024310
      dx2y2   :     0.015827
      dxy     :     0.025293

  8 C s       :     2.927772  s :     2.927772
      pz      :     1.050028  p :     3.203397
      px      :     1.087337
      py      :     1.066032
      dz2     :     0.012359  d :     0.096022
      dxz     :     0.017701
      dyz     :     0.011438
      dx2y2   :     0.023756
      dxy     :     0.030769

  9 C s       :     2.917409  s :     2.917409
      pz      :     1.054311  p :     3.264112
      px      :     1.125603
      py      :     1.084198
      dz2     :     0.022364  d :     0.079615
      dxz     :     0.009276
      dyz     :     0.020036
      dx2y2   :     0.013532
      dxy     :     0.014408

 10 C s       :     2.853662  s :     2.853662
      pz      :     1.074261  p :     3.214435
      px      :     1.064170
      py      :     1.076005
      dz2     :     0.026308  d :     0.094961
      dxz     :     0.026484
      dyz     :     0.017940
      dx2y2   :     0.010312
      dxy     :     0.013918

 11 C s       :     2.964738  s :     2.964738
      pz      :     1.058244  p :     3.174089
      px      :     1.022383
      py      :     1.093462
      dz2     :     0.010069  d :     0.108151
      dxz     :     0.023477
      dyz     :     0.010181
      dx2y2   :     0.029059
      dxy     :     0.035365

 12 C s       :     2.961539  s :     2.961539
      pz      :     1.160047  p :     3.374069
      px      :     1.083423
      py      :     1.130600
      dz2     :     0.009713  d :     0.061361
      dxz     :     0.011641
      dyz     :     0.013044
      dx2y2   :     0.007819
      dxy     :     0.019143

 13 C s       :     2.868332  s :     2.868332
      pz      :     1.003432  p :     2.971071
      px      :     0.885437
      py      :     1.082201
      dz2     :     0.029620  d :     0.128302
      dxz     :     0.020394
      dyz     :     0.013931
      dx2y2   :     0.025458
      dxy     :     0.038899

 14 C s       :     2.807420  s :     2.807420
      pz      :     0.962435  p :     2.912476
      px      :     1.003587
      py      :     0.946454
      dz2     :     0.053285  d :     0.177571
      dxz     :     0.047633
      dyz     :     0.034483
      dx2y2   :     0.018918
      dxy     :     0.023253

 15 C s       :     2.882229  s :     2.882229
      pz      :     1.045624  p :     3.040325
      px      :     1.029609
      py      :     0.965092
      dz2     :     0.044909  d :     0.122440
      dxz     :     0.027727
      dyz     :     0.026431
      dx2y2   :     0.008122
      dxy     :     0.015251

 16 C s       :     2.833722  s :     2.833722
      pz      :     1.027472  p :     2.913324
      px      :     0.972388
      py      :     0.913465
      dz2     :     0.041128  d :     0.174076
      dxz     :     0.055463
      dyz     :     0.032716
      dx2y2   :     0.021999
      dxy     :     0.022771

 17 C s       :     2.996139  s :     2.996139
      pz      :     1.098876  p :     3.350985
      px      :     1.132972
      py      :     1.119137
      dz2     :     0.013705  d :     0.057517
      dxz     :     0.009036
      dyz     :     0.013776
      dx2y2   :     0.011793
      dxy     :     0.009207

 18 H s       :     0.811663  s :     0.811663

 19 H s       :     0.816170  s :     0.816170

 20 H s       :     0.806615  s :     0.806615

 21 H s       :     0.811953  s :     0.811953

 22 H s       :     0.791517  s :     0.791517

 23 H s       :     0.816408  s :     0.816408

 24 H s       :     0.804925  s :     0.804925

 25 H s       :     0.802793  s :     0.802793

 26 H s       :     0.817979  s :     0.817979

 27 H s       :     0.830899  s :     0.830899

 28 H s       :     0.833869  s :     0.833869

 29 H s       :     0.715404  s :     0.715404

 30 H s       :     0.698512  s :     0.698512

 31 H s       :     0.624972  s :     0.624972

 32 H s       :     0.823832  s :     0.823832

 33 H s       :     0.814044  s :     0.814044

 34 H s       :     0.821663  s :     0.821663



                      *****************************
                      * MAYER POPULATION ANALYSIS *
                      *****************************

  NA   - Mulliken gross atomic population
  ZA   - Total nuclear charge
  QA   - Mulliken gross atomic charge
  VA   - Mayer's total valence
  BVA  - Mayer's bonded valence
  FA   - Mayer's free valence

  ATOM       NA         ZA         QA         VA         BVA        FA
  0 S     15.7258    16.0000     0.2742     2.6645     2.6645    -0.0000
  1 O      8.5528     8.0000    -0.5528     1.7167     1.7167     0.0000
  2 N      6.9412     7.0000     0.0588     3.3827     3.3827     0.0000
  3 N      7.1456     7.0000    -0.1456     3.1632     3.1632    -0.0000
  4 N      7.0799     7.0000    -0.0799     3.1049     3.1049    -0.0000
  5 N      7.6106     7.0000    -0.6106     2.9871     2.9871     0.0000
  6 C      6.0258     6.0000    -0.0258     4.1942     4.1942     0.0000
  7 C      6.5749     6.0000    -0.5749     3.5841     3.5841     0.0000
  8 C      5.9556     6.0000     0.0444     3.5769     3.5769     0.0000
  9 C      6.4223     6.0000    -0.4223     3.7481     3.7481     0.0000
 10 C      6.0089     6.0000    -0.0089     3.4511     3.4511     0.0000
 11 C      6.1029     6.0000    -0.1029     3.8305     3.8305    -0.0000
 12 C      6.5597     6.0000    -0.5597     3.8033     3.8033    -0.0000
 13 C      6.1392     6.0000    -0.1392     3.7298     3.7298     0.0000
 14 C      5.7802     6.0000     0.2198     4.0654     4.0654     0.0000
 15 C      6.0878     6.0000    -0.0878     4.0021     4.0021    -0.0000
 16 C      5.9034     6.0000     0.0966     3.9489     3.9489    -0.0000
 17 C      6.5346     6.0000    -0.5346     3.7187     3.7187    -0.0000
 18 H      0.7498     1.0000     0.2502     0.8962     0.8962     0.0000
 19 H      0.7635     1.0000     0.2365     0.9061     0.9061     0.0000
 20 H      0.7572     1.0000     0.2428     0.9186     0.9186    -0.0000
 21 H      0.7796     1.0000     0.2204     0.9428     0.9428     0.0000
 22 H      0.7224     1.0000     0.2776     0.8964     0.8964    -0.0000
 23 H      0.7796     1.0000     0.2204     0.9256     0.9256    -0.0000
 24 H      0.7890     1.0000     0.2110     0.9474     0.9474     0.0000
 25 H      0.7745     1.0000     0.2255     0.9549     0.9549    -0.0000
 26 H      0.7993     1.0000     0.2007     0.9370     0.9370    -0.0000
 27 H      0.8312     1.0000     0.1688     0.9413     0.9413    -0.0000
 28 H      0.8323     1.0000     0.1677     0.9617     0.9617    -0.0000
 29 H      0.6593     1.0000     0.3407     0.8596     0.8596     0.0000
 30 H      0.6346     1.0000     0.3654     0.8622     0.8622     0.0000
 31 H      0.5516     1.0000     0.4484     0.7689     0.7689     0.0000
 32 H      0.8070     1.0000     0.1930     0.9552     0.9552    -0.0000
 33 H      0.8079     1.0000     0.1921     0.9482     0.9482    -0.0000
 34 H      0.8102     1.0000     0.1898     0.9535     0.9535    -0.0000

  Mayer bond orders larger than 0.100000
B(  0-S ,  8-C ) :   1.1279 B(  0-S , 11-C ) :   1.3267 B(  1-O , 13-C ) :   0.9653 
B(  1-O , 31-H ) :   0.7525 B(  2-N ,  6-C ) :   1.2116 B(  2-N ,  7-C ) :   0.8041 
B(  2-N , 11-C ) :   1.3918 B(  3-N , 14-C ) :   1.5365 B(  3-N , 16-C ) :   1.5162 
B(  4-N , 15-C ) :   1.5968 B(  4-N , 16-C ) :   1.4441 B(  5-N , 14-C ) :   1.2069 
B(  5-N , 29-H ) :   0.8313 B(  5-N , 30-H ) :   0.8124 B(  6-C ,  8-C ) :   1.6743 
[...]
 39:    738.14   0.006708   33.90  0.002836  ( 0.014316 -0.021845  0.046408)
 40:    753.75   0.000158    0.80  0.000065  ( 0.006927 -0.004117  0.000658)
 41:    763.49   0.002522   12.75  0.001031  (-0.017810 -0.022481 -0.014432)
 42:    798.50   0.000085    0.43  0.000033  (-0.001837  0.000059  0.005453)
 43:    805.07   0.000331    1.67  0.000128  (-0.007214  0.003474 -0.008004)
 44:    881.37   0.002543   12.85  0.000900  (-0.026669  0.012580 -0.005542)
 45:    913.81   0.002029   10.26  0.000693  (-0.023702 -0.007818 -0.008374)
 46:    925.33   0.000966    4.88  0.000326  ( 0.015871 -0.008459 -0.001501)
 47:    941.80   0.001195    6.04  0.000396  ( 0.015273 -0.010526  0.007206)
 48:    964.71   0.001906    9.63  0.000617  (-0.005277 -0.008317  0.022795)
 49:    979.60   0.000788    3.98  0.000251  ( 0.014707 -0.004815 -0.003406)
 50:    995.82   0.000737    3.72  0.000231  (-0.015170  0.000791 -0.000384)
 51:   1010.88   0.001314    6.64  0.000406  ( 0.015433 -0.012670  0.002653)
 52:   1055.71   0.002252   11.38  0.000666  (-0.013236  0.014626 -0.016632)
 53:   1056.78   0.001944    9.83  0.000574  (-0.001428 -0.022999  0.006568)
 54:   1072.53   0.007253   36.66  0.002110  (-0.040055  0.001402 -0.022452)
 55:   1085.47   0.000072    0.36  0.000021  (-0.004066  0.001200  0.001662)
 56:   1101.99   0.003541   17.89  0.001003  ( 0.030511  0.003148  0.007864)
 57:   1114.38   0.000998    5.04  0.000280  (-0.003213 -0.000130  0.016407)
 58:   1175.65   0.000488    2.46  0.000129  ( 0.008264 -0.007207  0.003033)
 59:   1192.25   0.000160    0.81  0.000042  (-0.002195 -0.001410 -0.005919)
 60:   1215.15   0.005148   26.01  0.001322  (-0.036091  0.002466 -0.003652)
 61:   1219.37   0.001087    5.49  0.000278  (-0.012217 -0.008027 -0.008026)
 62:   1242.33   0.000265    1.34  0.000067  ( 0.007874 -0.001211  0.001785)
 63:   1271.33   0.002448   12.37  0.000601  ( 0.019431  0.002420  0.014750)
 64:   1281.36   0.008825   44.60  0.002149  ( 0.030431 -0.031054  0.016086)
 65:   1308.24   0.001837    9.29  0.000438  ( 0.015590 -0.013132  0.004776)
 66:   1311.06   0.006653   33.62  0.001584  (-0.037470  0.012507  0.004821)
 67:   1331.69   0.000592    2.99  0.000139  (-0.009010  0.007589  0.000146)
 68:   1349.54   0.000845    4.27  0.000195  ( 0.007273 -0.000654 -0.011920)
 69:   1381.17   0.003481   17.59  0.000786  ( 0.009863 -0.016415  0.020487)
 70:   1403.52   0.000012    0.06  0.000003  (-0.001250 -0.001049 -0.000219)
 71:   1404.20   0.000407    2.06  0.000091  (-0.000237  0.000701 -0.009488)
 72:   1425.83   0.002067   10.45  0.000452  ( 0.008520  0.019445  0.001292)
 73:   1435.07   0.012712   64.24  0.002764  ( 0.015249 -0.032754  0.038196)
 74:   1438.05   0.002516   12.71  0.000546  ( 0.013729 -0.013550 -0.013183)
 75:   1464.39   0.005305   26.81  0.001130  (-0.024262  0.022650 -0.005363)
 76:   1467.94   0.022904  115.75  0.004869  ( 0.002358 -0.031869  0.062031)
 77:   1479.90   0.003613   18.26  0.000762  ( 0.017412 -0.010926 -0.018422)
 78:   1481.63   0.004409   22.28  0.000929  (-0.007124  0.020083 -0.021784)
 79:   1484.62   0.019873  100.43  0.004177  ( 0.006114 -0.003057 -0.064269)
 80:   1488.80   0.006469   32.69  0.001356  (-0.033947  0.014118  0.002042)
 81:   1500.26   0.005075   25.65  0.001056  (-0.015443  0.025464  0.012988)
 82:   1515.54   0.001594    8.06  0.000328  ( 0.007923 -0.006850 -0.014785)
 83:   1523.37   0.001389    7.02  0.000284  ( 0.007235  0.004522 -0.014549)
 84:   1566.34   0.047417  239.63  0.009447  (-0.081620  0.044911  0.027715)
 85:   1608.24   0.007746   39.14  0.001503  (-0.020640 -0.017590 -0.027705)
 86:   1611.45   0.030938  156.35  0.005991  ( 0.009759 -0.031069  0.070219)
 87:   1667.73   0.050253  253.96  0.009403  ( 0.057653  0.002482 -0.077931)
 88:   2953.86   0.009041   45.69  0.000955  (-0.028806 -0.006663  0.008994)
 89:   3007.12   0.006553   33.12  0.000680  (-0.008030  0.022428  0.010608)
 90:   3010.35   0.003169   16.02  0.000329  (-0.003341  0.006402 -0.016625)
 91:   3013.31   0.000514    2.60  0.000053  ( 0.000229  0.006352 -0.003575)
 92:   3017.01   0.001079    5.45  0.000112  (-0.006287 -0.002414  0.008142)
 93:   3038.38   0.002288   11.56  0.000235  (-0.006645  0.013734 -0.001471)
 94:   3044.56   0.000684    3.46  0.000070  (-0.004285 -0.007165 -0.000647)
 95:   3081.03   0.000436    2.20  0.000044  ( 0.001019  0.003016 -0.005835)
 96:   3082.88   0.000887    4.48  0.000090  ( 0.008589  0.003905 -0.000908)
 97:   3085.48   0.001727    8.73  0.000175  (-0.009399 -0.003571 -0.008577)
 98:   3094.35   0.005920   29.92  0.000597  (-0.020180  0.013731 -0.001135)
 99:   3132.71   0.001076    5.44  0.000107  ( 0.008194 -0.004049 -0.004864)
100:   3150.73   0.000176    0.89  0.000017  (-0.000930  0.004049  0.000453)
101:   3231.44   0.004641   23.45  0.000448  (-0.004537 -0.018450 -0.009339)
102:   3529.69   0.012675   64.06  0.001121  (-0.026900  0.007211  0.018575)
103:   3648.63   0.005025   25.40  0.000430  ( 0.012776 -0.013838  0.008667)
104:   3763.06   0.009777   49.41  0.000811  ( 0.008120 -0.000748  0.027282)

* The epsilon (eps) is given for a Dirac delta lineshape.
** The dipole moment derivative (T) already includes vibrational overlap.

The first frequency considered to be a vibration is 6
The total number of vibrations considered is 99


--------------------------
THERMOCHEMISTRY AT 298.15K
--------------------------

Temperature         ...   298.15 K
Pressure            ...     1.00 atm
Total Mass          ...   265.35 AMU
Quasi RRHO          ...     True
Cut-Off Frequency   ...     1.00 cm^-1

Throughout the following assumptions are being made:
  (1) The electronic state is orbitally nondegenerate
  (2) There are no thermally accessible electronically excited states
  (3) Hindered rotations indicated by low frequency modes are not
      treated as such but are treated as vibrations and this may
      cause some error
  (4) All equations used are the standard statistical mechanics
      equations for an ideal gas
  (5) All vibrations are strictly harmonic

freq.      23.04  E(vib)   ...       0.56 
freq.      27.21  E(vib)   ...       0.55 
freq.      30.91  E(vib)   ...       0.55 
freq.      36.23  E(vib)   ...       0.54 
freq.      59.59  E(vib)   ...       0.51 
freq.      84.73  E(vib)   ...       0.48 
freq.     105.28  E(vib)   ...       0.45 
freq.     139.14  E(vib)   ...       0.42 
freq.     156.38  E(vib)   ...       0.40 
freq.     186.07  E(vib)   ...       0.37 
freq.     191.25  E(vib)   ...       0.36 
freq.     203.48  E(vib)   ...       0.35 
freq.     257.13  E(vib)   ...       0.30 
freq.     277.01  E(vib)   ...       0.28 
freq.     282.10  E(vib)   ...       0.28 
freq.     297.89  E(vib)   ...       0.27 
freq.     320.87  E(vib)   ...       0.25 
freq.     337.27  E(vib)   ...       0.24 
freq.     345.34  E(vib)   ...       0.23 
freq.     372.71  E(vib)   ...       0.21 
freq.     419.07  E(vib)   ...       0.18 
freq.     427.15  E(vib)   ...       0.18 
freq.     453.86  E(vib)   ...       0.16 
freq.     496.84  E(vib)   ...       0.14 
freq.     508.05  E(vib)   ...       0.14 
freq.     531.29  E(vib)   ...       0.13 
freq.     558.48  E(vib)   ...       0.12 
freq.     578.05  E(vib)   ...       0.11 
freq.     593.22  E(vib)   ...       0.10 
freq.     620.78  E(vib)   ...       0.09 
freq.     642.75  E(vib)   ...       0.09 
freq.     647.23  E(vib)   ...       0.09 
freq.     690.88  E(vib)   ...       0.07 
freq.     738.14  E(vib)   ...       0.06 
freq.     753.75  E(vib)   ...       0.06 
freq.     763.49  E(vib)   ...       0.06 
freq.     798.50  E(vib)   ...       0.05 
freq.     805.07  E(vib)   ...       0.05 
freq.     881.37  E(vib)   ...       0.04 
freq.     913.81  E(vib)   ...       0.03 
freq.     925.33  E(vib)   ...       0.03 
freq.     941.80  E(vib)   ...       0.03 
freq.     964.71  E(vib)   ...       0.03 
freq.     979.60  E(vib)   ...       0.03 
freq.     995.82  E(vib)   ...       0.02 
freq.    1010.88  E(vib)   ...       0.02 
freq.    1055.71  E(vib)   ...       0.02 
freq.    1056.78  E(vib)   ...       0.02 
freq.    1072.53  E(vib)   ...       0.02 
freq.    1085.47  E(vib)   ...       0.02 
freq.    1101.99  E(vib)   ...       0.02 
freq.    1114.38  E(vib)   ...       0.01 
freq.    1175.65  E(vib)   ...       0.01 
freq.    1192.25  E(vib)   ...       0.01 
freq.    1215.15  E(vib)   ...       0.01 
freq.    1219.37  E(vib)   ...       0.01 
freq.    1242.33  E(vib)   ...       0.01 
freq.    1271.33  E(vib)   ...       0.01 
freq.    1281.36  E(vib)   ...       0.01 
freq.    1308.24  E(vib)   ...       0.01 
freq.    1311.06  E(vib)   ...       0.01 
freq.    1331.69  E(vib)   ...       0.01 
freq.    1349.54  E(vib)   ...       0.01 
freq.    1381.17  E(vib)   ...       0.01 
freq.    1403.52  E(vib)   ...       0.00 
freq.    1404.20  E(vib)   ...       0.00 
freq.    1425.83  E(vib)   ...       0.00 
freq.    1435.07  E(vib)   ...       0.00 
freq.    1438.05  E(vib)   ...       0.00 
freq.    1464.39  E(vib)   ...       0.00 
freq.    1467.94  E(vib)   ...       0.00 
freq.    1479.90  E(vib)   ...       0.00 
freq.    1481.63  E(vib)   ...       0.00 
freq.    1484.62  E(vib)   ...       0.00 
freq.    1488.80  E(vib)   ...       0.00 
freq.    1500.26  E(vib)   ...       0.00 
freq.    1515.54  E(vib)   ...       0.00 
freq.    1523.37  E(vib)   ...       0.00 
freq.    1566.34  E(vib)   ...       0.00 
freq.    1608.24  E(vib)   ...       0.00 
freq.    1611.45  E(vib)   ...       0.00 
freq.    1667.73  E(vib)   ...       0.00 
freq.    2953.86  E(vib)   ...       0.00 
freq.    3007.12  E(vib)   ...       0.00 
freq.    3010.35  E(vib)   ...       0.00 
freq.    3013.31  E(vib)   ...       0.00 
freq.    3017.01  E(vib)   ...       0.00 
freq.    3038.38  E(vib)   ...       0.00 
freq.    3044.56  E(vib)   ...       0.00 
freq.    3081.03  E(vib)   ...       0.00 
freq.    3082.88  E(vib)   ...       0.00 
freq.    3085.48  E(vib)   ...       0.00 
freq.    3094.35  E(vib)   ...       0.00 
freq.    3132.71  E(vib)   ...       0.00 
freq.    3150.73  E(vib)   ...       0.00 
freq.    3231.44  E(vib)   ...       0.00 
freq.    3529.69  E(vib)   ...       0.00 
freq.    3648.63  E(vib)   ...       0.00 
freq.    3763.06  E(vib)   ...       0.00 

------------
INNER ENERGY
------------

The inner energy is: U= E(el) + E(ZPE) + E(vib) + E(rot) + E(trans)
    E(el)   - is the total energy from the electronic structure calculation
              = E(kin-el) + E(nuc-el) + E(el-el) + E(nuc-nuc)
    E(ZPE)  - the the zero temperature vibrational energy from the frequency calculation
    E(vib)  - the the finite temperature correction to E(ZPE) due to population
              of excited vibrational states
    E(rot)  - is the rotational thermal energy
    E(trans)- is the translational thermal energy

Summary of contributions to the inner energy U:
Electronic energy                ...  -1159.31507734 Eh
Zero point energy                ...      0.28475045 Eh     178.68 kcal/mol
Thermal vibrational correction   ...      0.01583969 Eh       9.94 kcal/mol
Thermal rotational correction    ...      0.00141627 Eh       0.89 kcal/mol
Thermal translational correction ...      0.00141627 Eh       0.89 kcal/mol
-----------------------------------------------------------------------
Total thermal energy                  -1159.01165466 Eh


Summary of corrections to the electronic energy:
(perhaps to be used in another calculation)
Total thermal correction                  0.01867223 Eh      11.72 kcal/mol
Non-thermal (ZPE) correction              0.28475045 Eh     178.68 kcal/mol
-----------------------------------------------------------------------
Total correction                          0.30342268 Eh     190.40 kcal/mol


--------
ENTHALPY
--------

The enthalpy is H = U + kB*T
                kB is Boltzmann's constant
Total thermal energy              ...  -1159.01165466 Eh 
Thermal Enthalpy correction       ...      0.00094421 Eh       0.59 kcal/mol
-----------------------------------------------------------------------
Total Enthalpy                    ...  -1159.01071045 Eh


Note: Only C1 symmetry has been detected, increase convergence thresholds 
      if your molecule has a higher symmetry. Symmetry factor of 1.0 is   
      used for the rotational entropy correction. 
 

Note: Rotational entropy computed according to Herzberg 
Infrared and Raman Spectra, Chapter V,1, Van Nostrand Reinhold, 1945 
Point Group:  C1, Symmetry Number:   1  
Rotational constants in cm-1:     0.021757     0.007620     0.006669 

Vibrational entropy computed according to the QRRHO of S. Grimme
Chem.Eur.J. 2012 18 9955 using a reference frequency of 100.0 cm-1


-------
ENTROPY
-------

The entropy contributions are T*S = T*(S(el)+S(vib)+S(rot)+S(trans))
     S(el)   - electronic entropy
     S(vib)  - vibrational entropy
     S(rot)  - rotational entropy
     S(trans)- translational entropy
The entropies will be listed as multiplied by the temperature to get
units of energy

Electronic entropy                ...      0.00000000 Eh      0.00 kcal/mol
Vibrational entropy               ...      0.02836370 Eh     17.80 kcal/mol
Rotational entropy                ...      0.01598559 Eh     10.03 kcal/mol
Translational entropy             ...      0.02025338 Eh     12.71 kcal/mol
-----------------------------------------------------------------------
Final entropy term                ...      0.06460267 Eh     40.54 kcal/mol

In case the symmetry of your molecule has not been determined correctly
or in case you have a reason to use a different symmetry number we print 
out the resulting rotational entropy values for sn=1,12:

 non-linear molecules -----------------------------------
|  sn= 1 | S(rot)=       0.01598559 Eh     10.03 kcal/mol|
|  sn= 2 | S(rot)=       0.01533113 Eh      9.62 kcal/mol|
|  sn= 3 | S(rot)=       0.01494830 Eh      9.38 kcal/mol|
|  sn= 4 | S(rot)=       0.01467667 Eh      9.21 kcal/mol|
|  sn= 5 | S(rot)=       0.01446599 Eh      9.08 kcal/mol|
|  sn= 6 | S(rot)=       0.01429384 Eh      8.97 kcal/mol|
|  sn= 7 | S(rot)=       0.01414830 Eh      8.88 kcal/mol|
|  sn= 8 | S(rot)=       0.01402222 Eh      8.80 kcal/mol|
|  sn= 9 | S(rot)=       0.01391101 Eh      8.73 kcal/mol|
|  sn=10 | S(rot)=       0.01381153 Eh      8.67 kcal/mol|
|  sn=11 | S(rot)=       0.01372154 Eh      8.61 kcal/mol|
|  sn=12 | S(rot)=       0.01363939 Eh      8.56 kcal/mol|
 linear molecules ---------------------------------------
|  Dinfh | S(rot)=       0.01005641 Eh      6.31 kcal/mol|
|  Cinfv | S(rot)=       0.01071087 Eh      6.72 kcal/mol|
 --------------------------------------------------------


-------------------
GIBBS FREE ENERGY
-------------------

The Gibbs free energy is G = H - T*S

Total enthalpy                    ...  -1159.01071045 Eh 
Total entropy correction          ...     -0.06460267 Eh    -40.54 kcal/mol
-----------------------------------------------------------------------
Final Gibbs free energy         ...  -1159.07531312 Eh

For completeness - the Gibbs free energy minus the electronic energy
G-E(el)                           ...      0.23976422 Eh    150.45 kcal/mol


Maximum memory used throughout the entire PROP-calculation: 108.8 MB

--------------------------------
SUGGESTED CITATIONS FOR THIS RUN
--------------------------------

Below you find a list of papers that are relevant to this ORCA run
We neither can nor want to force you to cite these papers, but we appreciate if you do
You receive ORCA, which is the product of decades of hard work by many enthusiastic individuals, for free
The only thing we kindly ask in return is that you cite our papers,
We deeply appreciate it, if you show your appreciation for ORCA by not just citing the generic ORCA reference.

Please note that relegating all ORCA citations to the supporting information does *not* help us.
SI sections are not indexed - citations you put there will not count into any citation statistics
But we need these citations in order to attract the funding resources that allow us to do what we are doing

Therefore, if you are a happy ORCA user, please consider citing a few of the papers listed below in the main body of your paper

In addition to the list printed below, the program has created the file m1_01_Vitamin_B1-GFN1_009-B97-3C-TZ_0_pos-B97-3C-TZ.bibtex that contains the list in bibtex format
You can import this file easily into all common literature databanks and citation aid programs


List of essential papers. We consider these as the minimum necessary citations

  1. Neese,F.
     Software update: the ORCA program system, version 5.0
     WIRES Comput. Molec. Sci., 2022 12(1)e1606
     doi.org/10.1002/wcms.1606

List of papers to cite with high priority. The work reported in these papers was absolutely
necessary for this run to complete.
Our perspective: the developers of density functionals and basis sets usually get cited in chemistry papers
Good! But without the algorithms to do something with them, the functionals or basis sets would not do anything.
Hence, in our opinion, the algorithm design and method developments papers are equally worthy of getting cited

  1. Neese,F.
     An improvement of the resolution of the identity approximation for the formation of the Coulomb matrix
     J. Comp. Chem., 2003 24(14)1740-1747
     doi.org/10.1002/jcc.10318
  2. Bykov,D.; Petrenko,T.; Izsak,R.; Kossmann,S.; Becker,U.; Valeev,E.; Neese,F.
     Efficient implementation of the analytic second derivatives of Hartree-Fock and hybrid DFT energies: a detailed analysis of different approximations
     Molec. Phys., 2015 113 1961-1977
     doi.org/10.1080/00268976.2015.1025114
  3. Neese,F.
     The SHARK Integral Generation and Digestion System
     J. Comp. Chem., 2022  1-16
     doi.org/10.1002/jcc.26942
  4. Grimme,S.; Antony,J.; Ehrlich,S.; Krieg,H.
     A consistent and accurate ab initio parametrization of density functional dispersion correction (DFT-D) for the 94 elements H-Pu
     J. Chem. Phys., 2010 132 154104
     doi.org/10.1063/1.3382344
  5. Grimme,S.; Ehrlich,S.; Goerigk,L.
     Effect of the damping function in dispersion corrected density functional theory
     J. Comput. Chem., 2011 32(7)1456-1465
     doi.org/10.1002/jcc.21759

List of suggested additional citations. These are papers that are important in the 'surrounding' of 
of this run, or papers that preceded the highly important papers. If you like your results we are grateful for a citation.

  1. Neese,F.
     The ORCA program system
     WIRES Comput. Molec. Sci., 2012 2(1)73-78
     doi.org/10.1002/wcms.81
  2. Neese,F.
     Software update: the ORCA program system, version 4.0
     WIRES Comput. Molec. Sci., 2018 8(1)1-6
     doi.org/10.1002/wcms.1327
  3. Neese,F.; Wennmohs,F.; Becker,U.; Riplinger,C.
     The ORCA quantum chemistry program package
     J. Chem. Phys., 2020 152 Art. No. L224108
     doi.org/10.1063/5.0004608

List of optional additional citations

  1. Neese,F.
     Approximate second-order SCF convergence for spin unrestricted wavefunctions
     Chem. Phys. Lett., 2000 325(1-3)93-98
     doi.org/10.1016/s0009-2614(00)00662-x

Timings for individual modules:

Sum of individual times          ...      259.312 sec (=   4.322 min)
Startup calculation              ...       19.408 sec (=   0.323 min)   7.5 %
SCF iterations                   ...       32.740 sec (=   0.546 min)  12.6 %
Property integrals               ...       75.369 sec (=   1.256 min)  29.1 %
SCF Response                     ...       80.222 sec (=   1.337 min)  30.9 %
Property calculations            ...       31.956 sec (=   0.533 min)  12.3 %
SCF Gradient evaluation          ...       19.558 sec (=   0.326 min)   7.5 %
Geometry relaxation              ...        0.059 sec (=   0.001 min)   0.0 %
                             ****ORCA TERMINATED NORMALLY****
TOTAL RUN TIME: 0 days 0 hours 4 minutes 20 seconds 730 msec
