35
 energy: -52.988890542308 gnorm: 0.000011603188 xtb: 6.7.0 (08769fc)
S            2.02116057316180       -1.95061180537757       -0.97605453991099
O            2.42827250674543        2.12986350034328       -1.02184659577835
N            0.58731636226758       -1.10974553708254        0.91682432711580
N           -3.23472869664925        0.16183802064051       -0.67445899672936
N           -2.54544087951480        2.02242903824687        0.57331764837360
N           -2.48276210996437       -1.96879531593138       -0.29563832076833
C            1.66488474699537       -0.25639395999398        0.90623476262778
C           -0.58859442586124       -0.95121486736065        1.76688267507890
C            2.56518549127931       -0.57835160830193       -0.07090187250618
C            3.78071188841097        0.16076849316442       -0.49623755330468
C           -1.61193701704401       -0.11698271453288        1.04261776297109
C            0.64481947928253       -2.04738277146244       -0.01449487288532
C            1.78409368006518        0.86312726060699        1.87375107430046
C            3.37648165877172        1.23751165268074       -1.53755983905470
C           -2.45903550006605       -0.63975188274346        0.04339693642331
C           -1.74757127145532        1.24567315419884        1.27463611237688
C           -3.23995715770809        1.45977049375044       -0.41174135450130
C           -4.10256981288845        2.33510773646637       -1.24294227275347
H           -0.29535029593373       -0.45916054599167        2.69428894087968
H           -0.97350784303137       -1.94635765158825        2.00147806763614
H            4.49729495782254       -0.51734108835561       -0.95822102760431
H            4.25583000795911        0.64116527678472        0.36009685025598
H           -0.13258232869118       -2.77212662291542       -0.16464188445363
H            1.57244491019903        0.53504842898015        2.88973249193893
H            2.79038750625325        1.26812341827239        1.85217312925103
H            1.09292795691192        1.66158766586449        1.60712580363548
H            2.90437662290315        0.74628179581177       -2.39351600408934
H            4.27781183714075        1.74955338750341       -1.88625114035636
H           -1.19895873929385        1.73502775363095        2.07030968281133
H           -2.44365298952820       -2.63787815971921        0.45889595331570
H           -3.21049299725959       -2.17073764695664       -0.96894414060367
H            2.86733457968081        2.85318141449670       -0.56186050399577
H           -3.58658315976684        3.26653273206724       -1.45830154903683
H           -4.38393712433231        1.82480617640535       -2.15829203694193
H           -5.00389941920077        2.58021932449114       -0.68258859322432
