35
 energy: -52.989556555415 gnorm: 0.000039709473 xtb: 6.7.0 (08769fc)
S            1.83954944187596       -1.08287329541293       -1.86137109675443
O            3.19484268090614        2.02608917968548        0.41402004244792
N            0.57333490849445       -1.17750935358691        0.31008429429562
N           -3.75705049226571        0.21456135972519       -0.11460487202682
N           -2.26706301774639        1.92750174572089        0.47358507131389
N           -3.29851618838573       -2.00471187930798        0.10616850888316
C            1.80590680152397       -0.69100673268884        0.66606995872749
C           -0.56424273297991       -1.32810296419543        1.20986169714263
C            2.64226266043574       -0.58426013409008       -0.41004859967925
C            4.02225043753875       -0.03304338900691       -0.46091533140814
C           -1.64154534931186       -0.34872073039130        0.81283722979081
C            0.44820752028865       -1.42703946840495       -0.98331205657322
C            2.13396923714543       -0.35939484682939        2.07527757727697
C            3.96998845921814        1.49539693809991       -0.63517099527007
C           -2.90265483217404       -0.71815353271868        0.29687428850112
C           -1.40307608198676        1.01800142844760        0.87439055147954
C           -3.42399695981912        1.49044186531625       -0.01871827674865
C           -4.41085807088557        2.50172772440791       -0.47449201615882
H           -0.22857801373004       -1.14082944685197        2.22998578091450
H           -0.92041592792494       -2.35765956979614        1.13881295091349
H            4.57351309925304       -0.46314609249368       -1.29631501624809
H            4.54809926174060       -0.26435282040874        0.46552313441774
H           -0.46232011666058       -1.79699650761117       -1.41712573232719
H            1.43014059378155        0.36753321133075        2.47549716434291
H            2.11561874630833       -1.25188581544831        2.70043862521565
H            3.11998281801956        0.08833888202361        2.12570731554799
H            3.52091973493671        1.73941158049950       -1.60888749617217
H            4.99363675819532        1.88599748214609       -0.61350529868204
H           -0.46353165313107        1.40386875379240        1.25314121850247
H           -2.95878001152107       -2.73546894972890        0.70794402687059
H           -4.26349066527237       -2.09315210333911       -0.17562900474815
H            3.25761249267777        2.98684255574280        0.40543973329847
H           -5.09811487663429        2.05978113184426       -1.18876611403514
H           -4.98124954628841        2.85096774270159        0.38542128485059
H           -3.89629544455254        3.35679071537658       -0.90253980728653
