35
 energy: -52.985118919402 gnorm: 0.000035084517 xtb: 6.7.0 (08769fc)
S            1.87824711599087        0.50621399420195        1.49408009907411
O            6.12869504902396       -0.63239044774891       -0.72450763922503
N            0.41522210131850       -0.38090690868401       -0.35149981190402
N           -3.84609111646962       -0.12060358444656        0.99843207842417
N           -3.66555896697084        1.46860875751404       -0.71711848443637
N           -2.32095714601393       -1.78397152014558        1.34512873488533
C            1.64613659424998       -0.23254733047839       -0.94207658475551
C           -0.76654328694500       -0.87249671643054       -1.06084502258214
C            2.57991468965082        0.26106143151061       -0.07305633655867
C            4.01860840337884        0.52017849962352       -0.31622943940197
C           -2.03446229934927       -0.25908054687986       -0.54172197569629
C            0.39117105049287       -0.03894183722299        0.92552282072454
C            1.86888647391424       -0.58677218975963       -2.36763085077963
C            4.86399993476383       -0.77661787081170       -0.16597751116876
C           -2.75036145495455       -0.74077504322465        0.57533240908493
C           -2.57816174557756        0.86740289490211       -1.14833274119075
C           -4.26940716675574        0.95389346267932        0.35152516274340
C           -5.50286444297603        1.61839429589207        0.83890767457591
H           -0.78509381821802       -1.96452921741886       -0.97541811789144
H           -0.65318758044798       -0.61341547373071       -2.11507345225460
H            4.38657890709639        1.27093199373522        0.38466242894232
H            4.16945556512989        0.89696721863976       -1.32970957558048
H           -0.48915415615500       -0.11516460137200        1.53651671268433
H            1.31011521774904        0.07793201709794       -3.02668621861545
H            2.92171211835845       -0.49983667211904       -2.61525459807544
H            1.55600127459049       -1.61055936660427       -2.56632700807591
H            4.38792606212270       -1.58837362210427       -0.72277461259111
H            4.91010893011337       -1.06065565060840        0.89378441072239
H           -2.11224751903678        1.30695549776021       -2.02239718800511
H           -1.81102925816967       -2.53621357294794        0.91064462428955
H           -3.00179314835184       -2.07847133216875        2.03080823655650
H            6.67592388456977       -0.04555844712521       -0.18994093621928
H           -6.33139213280565        1.35121331341536        0.18428710359963
H           -5.73141385773301        1.29282371523322        1.84843957849556
H           -5.38477012208113        2.69738920696302        0.79358339466588
