
                                 *****************
                                 * O   R   C   A *
                                 *****************

                                            #,                                       
                                            ###                                      
                                            ####                                     
                                            #####                                    
                                            ######                                   
                                           ########,                                 
                                     ,,################,,,,,                         
                               ,,#################################,,                 
                          ,,##########################################,,             
                       ,#########################################, ''#####,          
                    ,#############################################,,   '####,        
                  ,##################################################,,,,####,       
                ,###########''''           ''''###############################       
              ,#####''   ,,,,##########,,,,          '''####'''          '####       
            ,##' ,,,,###########################,,,                        '##       
           ' ,,###''''                  '''############,,,                           
         ,,##''                                '''############,,,,        ,,,,,,###''
      ,#''                                            '''#######################'''  
     '                                                          ''''####''''         
             ,#######,   #######,   ,#######,      ##                                
            ,#'     '#,  ##    ##  ,#'     '#,    #''#        ,####,   ,####,        
            ##       ##  ##   ,#'  ##            #'  '#       #'       #'  '#        
            ##       ##  #######   ##           ,######,      #####,   #    #        
            '#,     ,#'  ##    ##  '#,     ,#' ,#      #,     #,   #   #,  ,#        
             '#######'   ##     ##  '#######'  #'      '#     '####' # '####'        



                #########################################################
                #                        -***-                          #
                #          Department of theory and spectroscopy        #
                #                                                       #
                #                      Frank Neese                      #
                #                                                       #
                #     Directorship, Architecture, Infrastructure        #
                #                    SHARK, DRIVERS                     #
                #        Core code/Algorithms in most modules           #
                #                                                       #
                #        Max Planck Institute fuer Kohlenforschung      #
                #                Kaiser Wilhelm Platz 1                 #
                #                 D-45470 Muelheim/Ruhr                 #
                #                      Germany                          #
                #                                                       #
                #                  All rights reserved                  #
                #                        -***-                          #
                #########################################################


                         Program Version 6.0.1  -  RELEASE   -


 With contributions from (in alphabetic order):
[Max-Planck-Institut fuer Kohlenforschung]                               
  Daniel Aravena         : Magnetic Suceptibility                        
  Michael Atanasov       : Ab Initio Ligand Field Theory (pilot matlab implementation)
  Alexander A. Auer      : GIAO ZORA, VPT2 properties, NMR spectrum      
  Ute Becker             : All parallelization in ORCA, NUMFREQ, NUMCALC 
  Giovanni Bistoni       : ED, misc. LED, open-shell LED, HFLD           
  Martin Brehm           : Molecular dynamics                            
  Dmytro Bykov           : pre 5.0 version of the SCF Hessian            
  Marcos Casanova-Páez   : Triplet and SCS-CIS(D). UHF-(DLPNO)-IP/EA/STEOM-CCSD. UHF-CVS-IP/STEOM-CCSD   
  Vijay G. Chilkuri      : MRCI spin determinant printing, contributions to CSF-ICE 
  Pauline Colinet        : FMM embedding                                 
  Dipayan Datta          : RHF DLPNO-CCSD density                        
  Achintya Kumar Dutta   : EOM-CC, STEOM-CC                              
  Nicolas Foglia         : Exact transition moments, OPA infrastructure, MCD improvements    
  Dmitry Ganyushin       : Spin-Orbit,Spin-Spin,Magnetic field MRCI      
  Miquel Garcia-Rates    : C-PCM and meta-GGA Hessian, CCSD/C-PCM, Gaussian charge scheme 
  Tiago L. C. Gouveia    : GS-ROHF, GS-ROCIS                             
  Yang Guo               : DLPNO-NEVPT2, F12-NEVPT2, CIM, IAO-localization        
  Andreas Hansen         : Spin unrestricted coupled pair/coupled cluster methods 
  Ingolf Harden          : AUTO-CI MPn and infrastructure                
  Benjamin Helmich-Paris : MC-RPA, TRAH-(SCF,CASSCF), AVAS, COSX integrals, SCF dyn. polar. 
  Lee Huntington         : MR-EOM, pCC                                   
  Robert Izsak           : Overlap fitted RIJCOSX, COSX-SCS-MP3, EOM     
  Riya Kayal             : Wick's Theorem for AUTO-CI, AUTO-CI UHF-CCSDT 
  Emily Kempfer          : AUTO-CI, RHF CISDT and CCSDT                  
  Christian Kollmar      : KDIIS, OOCD, Brueckner-CCSD(T), CCSD density, CASPT2, CASPT2-K, improved NEVPT2 
  Axel Koslowski         : Symmetry handling                             
  Simone Kossmann        : meta-GGA functionals, TD-DFT gradient, OOMP2, (MP2 Hessian; deprecated post 5.0) 
  Lucas Lang             : DCDCAS                                        
  Marvin Lechner         : AUTO-CI (C++ implementation), FIC-MRCC        
  Spencer Leger          : CASSCF response                               
  Dagmar Lenk            : GEPOL surface, SMD, ORCA-2-JSON               
  Dimitrios Liakos       : Extrapolation schemes; Compound Job, initial MDCI parallelization 
  Dimitrios Manganas     : Further ROCIS development; embedding schemes. LFT, Crystal Embedding 
  Dimitrios Pantazis     : SARC Basis sets                               
  Anastasios Papadopoulos: AUTO-CI, single reference methods and gradients 
  Taras Petrenko         : pre 6.0 DFT Hessian and TD-DFT gradient, (ASA, deprecated), ECA, 1-Electron XAS/XES, NRVS 
  Peter Pinski           : DLPNO-MP2, DLPNO-MP2 Gradient                 
  Christoph Reimann      : Effective Core Potentials                     
  Marius Retegan         : Local ZFS, SOC                                
  Christoph Riplinger    : Optimizer, TS searches, QM/MM, DLPNO-CCSD(T), (RO)-DLPNO pert. Triples 
  Michael Roemelt        : Original ROCIS implementation                 
  Masaaki Saitow         : Open-shell DLPNO-CCSD energy and density      
  Barbara Sandhoefer     : DKH picture change effects                    
  Kantharuban Sivalingam : CASSCF convergence/infrastructure, NEVPT2 and variants, FIC-MRCI 
  Bernardo de Souza      : ESD, SOC TD-DFT                               
  Georgi L. Stoychev     : AutoAux, RI-MP2 NMR, DLPNO-MP2 response, X2C  
  Van Anh Tran           : RI-MP2 g-tensors                              
  Willem Van den Heuvel  : Paramagnetic NMR                              
  Zikuan Wang            : NOTCH, Electric field optimization            
  Frank Wennmohs         : Technical directorship and infrastructure     
  Hang Xu                : AUTO-CI-Response properties                   
                                                                         
[FACCTs GmbH]                                                            
  Markus Bursch, Miquel Garcia-Rates, Christoph Riplinger, Bernardo de Souza, Georgi L. Stoychev 
                                                                 
  APM, Basis sets (HGBS, AHGBS, def-TZVP (Ac-Lr), def2-XVPD (La-Lu)), CI-OPT, improved COSX, DLPNO-Multilevel,           
  DOCKER, DRACO, updates on ESD, GOAT, IRC, LR-CPCM, MBIS, meta-GGA TD-DFT gradient, ML-optimized integration grids, 
  MM, NACMEs, nearIR, NEB, NEB-TS, NL-DFT gradient (VV10), 2- and 3-layer-ONIOM, interface openCOSMO-RS, QMMM,   
  Crystal-QMMM, SF, symmetry and pop. for TD-DFT, r2SCAN hybrids, SOLVATOR                                   
                                                                         
[Other institutions]                                                     
  V. Asgeirsson          : NEB                                           
  Christoph Bannwarth    : sTDA-DFT, sTD-DFT, PBEh-3c, B97-3c, D3        
  Sebastian Ehlert       : rSCAN, r2SCAN, r2SCAN-3c, D4, dhf basis sets  
  Marvin Friede          : D4 for Fr, Ra, Ac-Lr                          
  Lars Goerigk           : TD-DFT with DH, B97 family of functionals     
  Stefan Grimme          : VdW corrections, initial TS optimization, DFT functionals, gCP, sTDA/sTD-DF 
  Waldemar Hujo          : DFT-NL                                        
  H. Jonsson             : NEB                                           
  Holger Kruse           : gCP                                           
  Marcel Mueller         : wB97X-3c, vDZP basis set                      
  Hagen Neugebauer       : wr2SCAN                                       
  Tobias Risthaus        : range-separated hybrid DFT                    
  Lukas Wittmann         : regularized MP2, r2SCAN double-hybrids, wr2SCAN        
                                                                         
We gratefully acknowledge several colleagues who have allowed us to      
interface, adapt or use parts of their codes:                            
  Ed Valeev, F. Pavosevic, A. Kumar             : LibInt (2-el integral package), F12 methods 
  Garnet Chan, S. Sharma, J. Yang, R. Olivares  : DMRG                   
  Ulf Ekstrom                                   : XCFun DFT Library      
  Mihaly Kallay                                 : mrcc  (arbitrary order and MRCC methods)
  Frank Weinhold                                : gennbo (NPA and NBO analysis)           
  Simon Mueller                                 : openCOSMO-RS                            
  Christopher J. Cramer and Donald G. Truhlar   : smd solvation model                     
  S Lehtola, MJT Oliveira, MAL Marques          : LibXC Library                           
  Liviu Ungur et al                             : ANISO software                          


 Your calculation uses the libint2 library for the computation of 2-el integrals
 For citations please refer to: http://libint.valeyev.net

 Your ORCA version has been built with support for libXC version: 6.2.2
 For citations please refer to: https://libxc.gitlab.io

 This ORCA versions uses:
   CBLAS   interface :  Fast vector & matrix operations
   LAPACKE interface :  Fast linear algebra routines
   SCALAPACK package :  Parallel linear algebra routines
   Shared memory     :  Shared parallel matrices
   BLAS/LAPACK       :  OpenBLAS 0.3.27  USE64BITINT DYNAMIC_ARCH NO_AFFINITY Zen SINGLE_THREADED
        Core in use  :  Zen
   Copyright (c) 2011-2014, The OpenBLAS Project


NOTE: MaxCore=6000 MB was set to SCF,MP2,MDCI,CIPSI,MRCI and CIS
      => If you want to overwrite this, your respective input block should be placed after the MaxCore statement
Your calculation utilizes the atom-pairwise dispersion correction
with the Becke-Johnson damping scheme (D3BJ)


Your calculation employs the composite approach B97-3c by Grimme and coworkers.
For the correct reference, please check the publication list of the Grimme group:
http://www.thch.uni-bonn.de/tc/index.php?section=publikationen&subsection=grimme#2017
   

XCFun DFT library Copyright 2009-2010 Ulf Ekstrom and contributors.
See http://admol.org/xcfun for more information.
This is free software; see the source code for copying conditions.
There is ABSOLUTELY NO WARRANTY; not even for MERCHANTABILITY or FITNESS FOR A PARTICULAR PURPOSE.
For details see the documentation.
Scientific users of this library should cite U. Ekstrom, L. Visscher, R. Bast, A. J. Thorvaldsen and K. Ruud;
J.Chem.Theor.Comp. 2010, DOI: 10.1021/ct100117s
XCFun Version 0.99 

================================================================================

----- Orbital basis set information -----
Your calculation utilizes the basis: def2-mTZVP
----- AuxJ basis set information -----
Your calculation utilizes the basis: def2-mTZVP/J
================================================================================
                                        WARNINGS
                       Please study these warnings very carefully!
================================================================================


WARNING: Geometry Optimization
  ===> : Switching off AutoStart
         For restart on a previous wavefunction, please use MOREAD

================================================================================
                                       INPUT FILE
================================================================================
NAME = m1_00_Vitamin_B5-B97-3C-TZ.inp
|  1> %pal nprocs 16 end
|  2> %MaxCore 6000
|  3> # put your comments here
|  4> ! B97-3C  OPT  FREQ DEFGRID3 NOTRAH CHELPG
|  5> %scf MaxIter 800 end
|  6> %output
|  7> Print [P_Hirshfeld] 1
|  8> end
|  9> %geom
| 10> MaxIter 3000
| 11>  TolE 1e-6 #TolE 5e-6 Energy change (a.u.)
| 12>  TolRMSG 3e-5 #TolRMSG 1e-4 RMS gradient (a.u.)
| 13>  TolMaxG 1e-4 #TolMaxG 3e-3 Max. element of gradient (a.u.)
| 14>  TolRMSD 2e-3 #TolRMSD 2e-3 RMS displacement (a.u.)
| 15>  TolMaxD 4e-3 #TolMaxD 4e-3 Max. displacement (a.u.)
| 16> end
| 17> * xyz 0 1
| 18>  O     -2.752900000     -1.694400000      0.333800000
| 19>  O     -1.107300000      2.879400000     -0.196300000
| 20>  O     -0.484900000     -2.118500000     -1.075000000
| 21>  O      3.080800000      1.613000000     -0.879300000
| 22>  O      3.151100000      0.790700000      1.235900000
| 23>  N      0.733200000     -1.222900000      0.685000000
| 24>  C     -1.981200000      0.601800000      0.045500000
| 25>  C     -1.658300000     -0.819600000      0.594400000
| 26>  C     -0.810300000      1.581000000      0.306000000
| 27>  C     -3.244200000      1.132500000      0.765200000
| 28>  C     -2.294300000      0.554000000     -1.463400000
| 29>  C     -0.426600000     -1.469800000     -0.032000000
| 30>  C      2.030000000     -1.711500000      0.276500000
| 31>  C      2.753400000     -0.725100000     -0.630900000
| 32>  C      3.011600000      0.609400000      0.034400000
| 33>  H     -1.532700000     -0.782900000      1.682900000
| 34>  H      0.111300000      1.250900000     -0.180600000
| 35>  H     -0.612000000      1.673000000      1.379100000
| 36>  H     -4.110000000      0.483600000      0.592600000
| 37>  H     -3.517800000      2.134000000      0.414900000
| 38>  H     -3.081800000      1.192000000      1.847300000
| 39>  H     -2.599800000      1.536100000     -1.842100000
| 40>  H     -3.119100000     -0.127500000     -1.694600000
| 41>  H     -1.421000000      0.240300000     -2.044500000
| 42>  H      0.685800000     -0.664600000      1.532200000
| 43>  H     -2.789200000     -1.875200000     -0.620000000
| 44>  H      2.606100000     -1.891600000      1.190300000
| 45>  H      1.905700000     -2.668800000     -0.241000000
| 46>  H     -0.991900000      2.857700000     -1.161100000
| 47>  H      2.147600000     -0.552000000     -1.528400000
| 48>  H      3.719400000     -1.136800000     -0.941200000
| 49>  H      3.249300000      2.481600000     -0.455700000
| 50> *
| 51> 
| 52> 
| 53> 
| 54> 
| 55>                          ****END OF INPUT****
================================================================================

                       *****************************
                       * Geometry Optimization Run *
                       *****************************

Geometry optimization settings:
Update method            Update   .... BFGS
Choice of coordinates    CoordSys .... (2022) Redundant Internals
Initial Hessian          InHess   .... Almloef's Model
Max. no of cycles        MaxIter  .... 3000

Convergence Tolerances:
Energy Change            TolE     ....  1.0000e-06 Eh
Max. Gradient            TolMAXG  ....  1.0000e-04 Eh/bohr
RMS Gradient             TolRMSG  ....  3.0000e-05 Eh/bohr
Max. Displacement        TolMAXD  ....  4.0000e-03 bohr
RMS Displacement         TolRMSD  ....  2.0000e-03 bohr
Strict Convergence                .... False

------------------------------------------------------------------------------
                        ORCA OPTIMIZATION COORDINATE SETUP
------------------------------------------------------------------------------

The optimization will be done in redundant internal coordinates (2022)
Making redundant internal coordinates   ...  (2022 redundants) done
Evaluating the initial hessian          ...  (Almloef) done
Evaluating the coordinates              ...  done
Calculating the B-matrix                .... done
Calculating the G-matrix                .... done
Diagonalizing the G-matrix              .... done
Small eigenvalue found = 7.606e-03
Small eigenvalue found = 1.312e-02
Small eigenvalue found = 1.813e-02
The first mode is                       ....   54
The number of degrees of freedom        ....   90

    -----------------------------------------------------------------
                    Redundant Internal Coordinates


    -----------------------------------------------------------------
         Definition                    Initial Value    Approx d2E/dq
    -----------------------------------------------------------------
      1. B(C   7,C   6)                  1.5575         0.337627   
      2. B(C   7,O   0)                  1.4252         0.491628   
      3. B(C   8,C   6)                  1.5485         0.349092   
      4. B(C   8,O   1)                  1.4235         0.494796   
      5. B(C   9,C   6)                  1.5475         0.350304   
      6. B(C  10,C   6)                  1.5418         0.357749   
      7. B(C  11,N   5)                  1.3857         0.568492   
      8. B(C  11,O   2)                  1.2297         1.008534   
      9. B(C  11,C   7)                  1.5272         0.377491   
     10. B(C  12,N   5)                  1.4447         0.457647   
     11. B(C  13,C  12)                  1.5230         0.383242   
     12. B(C  14,C  13)                  1.5133         0.397161   
     13. B(C  14,O   4)                  1.2231         1.033191   
     14. B(C  14,O   3)                  1.3590         0.627123   
     15. B(H  15,C   7)                  1.0963         0.351814   
     16. B(H  16,C   8)                  1.0932         0.355888   
     17. B(H  17,C   8)                  1.0951         0.353365   
     18. B(H  18,C   9)                  1.0957         0.352689   
     19. B(H  19,C   9)                  1.0957         0.352632   
     20. B(H  20,C   9)                  1.0958         0.352463   
     21. B(H  21,C  10)                  1.0960         0.352221   
     22. B(H  22,C  10)                  1.0946         0.354041   
     23. B(H  23,C  10)                  1.0949         0.353716   
     24. B(H  24,N   5)                  1.0157         0.423705   
     25. B(H  25,O   0)                  0.9715         0.498515   
     26. B(H  25,O   2)                  2.3614         0.003021   
     27. B(H  26,C  12)                  1.0952         0.353349   
     28. B(H  27,C  12)                  1.0953         0.353158   
     29. B(H  28,O   1)                  0.9719         0.497680   
     30. B(H  29,C  13)                  1.0966         0.351514   
     31. B(H  30,C  13)                  1.0950         0.353597   
     32. B(H  31,O   3)                  0.9810         0.481411   
     33. B(H  31,H  28)                  4.3159         0.000000   
     34. A(C   7,O   0,H  25)          108.8112         0.353205   
     35. A(C   8,O   1,H  28)          107.7666         0.353489   
     36. A(C  14,O   3,H  31)          111.8586         0.365973   
     37. A(C  12,N   5,H  24)          117.6205         0.339564   
     38. A(C  11,N   5,H  24)          119.3705         0.352171   
     39. A(C  11,N   5,C  12)          123.0046         0.399710   
     40. A(C   7,C   6,C   8)          111.1645         0.353058   
     41. A(C   7,C   6,C  10)          111.0207         0.354526   
     42. A(C   8,C   6,C   9)          108.7868         0.355270   
     43. A(C   7,C   6,C   9)          108.5580         0.353265   
     44. A(C   9,C   6,C  10)          107.4601         0.356750   
     45. A(C   8,C   6,C  10)          109.7436         0.356541   
     46. A(C  11,C   7,H  15)          109.2138         0.323635   
     47. A(C   6,C   7,C  11)          114.2800         0.357774   
     48. A(O   0,C   7,C  11)          106.4451         0.379226   
     49. A(O   0,C   7,H  15)          106.8621         0.336043   
     50. A(O   0,C   7,C   6)          109.6627         0.371987   
     51. A(C   6,C   7,H  15)          110.0657         0.317783   
     52. A(H  16,C   8,H  17)          107.9914         0.289444   
     53. A(O   1,C   8,H  17)          107.8734         0.336649   
     54. A(O   1,C   8,C   6)          111.0798         0.374549   
     55. A(C   6,C   8,H  16)          111.8171         0.320120   
     56. A(O   1,C   8,H  16)          107.1123         0.337048   
     57. A(C   6,C   8,H  17)          110.7869         0.319748   
     58. A(H  18,C   9,H  19)          107.0764         0.288941   
     59. A(C   6,C   9,H  19)          111.6271         0.319821   
     60. A(C   6,C   9,H  18)          111.6270         0.319829   
     61. A(H  19,C   9,H  20)          107.6423         0.288912   
     62. A(H  18,C   9,H  20)          107.7473         0.288919   
     63. A(C   6,C   9,H  20)          110.9106         0.319796   
     64. A(H  21,C  10,H  23)          107.1983         0.289020   
     65. A(C   6,C  10,H  23)          111.4896         0.321083   
     66. A(H  21,C  10,H  22)          105.9543         0.289061   
     67. A(C   6,C  10,H  22)          112.2737         0.321131   
     68. A(C   6,C  10,H  21)          111.5293         0.320861   
     69. A(H  22,C  10,H  23)          108.0913         0.289253   
     70. A(O   2,C  11,C   7)          122.2949         0.430481   
     71. A(O   2,C  11,N   5)          124.9289         0.460556   
     72. A(N   5,C  11,C   7)          112.7648         0.388927   
     73. A(N   5,C  12,C  13)          112.0712         0.375538   
     74. A(H  26,C  12,H  27)          108.0713         0.289093   
     75. A(C  13,C  12,H  27)          109.7832         0.324643   
     76. A(N   5,C  12,H  27)          109.1055         0.332280   
     77. A(C  13,C  12,H  26)          110.7183         0.324672   
     78. A(N   5,C  12,H  26)          106.9697         0.332310   
     79. A(H  29,C  13,H  30)          108.3484         0.288914   
     80. A(C  14,C  13,H  30)          107.7958         0.326620   
     81. A(C  12,C  13,H  30)          110.1423         0.324709   
     82. A(C  14,C  13,H  29)          108.3531         0.326303   
     83. A(C  12,C  13,H  29)          109.1148         0.324394   
     84. A(C  12,C  13,C  14)          112.9690         0.368793   
     85. A(O   4,C  14,C  13)          125.5943         0.436323   
     86. A(O   3,C  14,C  13)          111.3665         0.399211   
     87. A(O   3,C  14,O   4)          123.0382         0.470986   
     88. D(O   0,C   7,C   6,C   8)   -179.7885         0.009242   
     89. D(O   0,C   7,C   6,C   9)     60.5904         0.009242   
     90. D(C  11,C   7,C   6,C   9)    179.9956         0.009242   
     91. D(C  11,C   7,O   0,H  25)    -53.2575         0.019089   
     92. D(C   6,C   7,O   0,H  25)     70.8504         0.019089   
     93. D(C  11,C   7,C   6,C   8)    -60.3833         0.009242   
     94. D(C  11,C   7,C   6,C  10)     62.0861         0.009242   
     95. D(H  15,C   7,O   0,H  25)   -169.8739         0.019089   
     96. D(O   0,C   7,C   6,C  10)    -57.3191         0.009242   
     97. D(O   1,C   8,C   6,C   9)    -60.5138         0.009823   
     98. D(O   1,C   8,C   6,C  10)     56.7967         0.009823   
     99. D(O   1,C   8,C   6,C   7)   -179.9986         0.009823   
    100. D(H  16,C   8,O   1,H  28)     45.4518         0.019343   
    101. D(C   6,C   8,O   1,H  28)    -76.9207         0.019343   
    102. D(H  17,C   8,O   1,H  28)    161.4825         0.019343   
    103. D(H  16,C   8,C   6,C   7)     60.3986         0.009823   
    104. D(H  16,C   8,C   6,C  10)    -62.8061         0.009823   
    105. D(H  16,C   8,C   6,C   9)    179.8834         0.009823   
    106. D(H  19,C   9,C   6,C  10)    -59.8167         0.009885   
    107. D(H  19,C   9,C   6,C   8)     58.9374         0.009885   
    108. D(H  19,C   9,C   6,C   7)   -179.9658         0.009885   
    109. D(H  18,C   9,C   6,C  10)     59.9848         0.009885   
    110. D(H  18,C   9,C   6,C   8)    178.7389         0.009885   
    111. D(H  18,C   9,C   6,C   7)    -60.1643         0.009885   
    112. D(H  22,C  10,C   6,C   9)    -61.8136         0.010277   
    113. D(H  22,C  10,C   6,C   8)   -179.9504         0.010277   
    114. D(H  22,C  10,C   6,C   7)     56.7603         0.010277   
    115. D(H  21,C  10,C   6,C   9)     56.9305         0.010277   
    116. D(H  21,C  10,C   6,C   8)    -61.2063         0.010277   
    117. D(H  21,C  10,C   6,C   7)    175.5044         0.010277   
    118. D(O   2,C  11,N   5,C  12)      0.0019         0.025856   
    119. D(N   5,C  11,C   7,O   0)   -146.4714         0.010642   
    120. D(O   2,C  11,C   7,H  15)    149.7315         0.010642   
    121. D(O   2,C  11,C   7,C   6)    -86.5024         0.010642   
    122. D(O   2,C  11,C   7,O   0)     34.6977         0.010642   
    123. D(C   7,C  11,N   5,H  24)      0.4188         0.025856   
    124. D(C   7,C  11,N   5,C  12)   -178.7927         0.025856   
    125. D(N   5,C  11,C   7,C   6)     92.3285         0.010642   
    126. D(O   2,C  11,N   5,H  24)    179.2134         0.025856   
    127. D(H  27,C  12,N   5,C  11)    -31.8021         0.017876   
    128. D(H  26,C  12,N   5,H  24)     32.2984         0.017876   
    129. D(H  26,C  12,N   5,C  11)   -148.4771         0.017876   
    130. D(C  13,C  12,N   5,H  24)    -89.2258         0.017876   
    131. D(C  13,C  12,N   5,C  11)     89.9988         0.017876   
    132. D(H  29,C  13,C  12,H  27)     61.6450         0.011696   
    133. D(H  29,C  13,C  12,H  26)   -179.1132         0.011696   
    134. D(H  29,C  13,C  12,N   5)    -59.7671         0.011696   
    135. D(C  14,C  13,C  12,H  27)   -177.7690         0.011696   
    136. D(C  14,C  13,C  12,H  26)    -58.5272         0.011696   
    137. D(C  14,C  13,C  12,N   5)     60.8189         0.011696   
    138. D(O   4,C  14,C  13,H  29)    148.8278         0.011714   
    139. D(O   4,C  14,C  13,C  12)     27.8085         0.011714   
    140. D(O   3,C  14,C  13,H  30)     85.5281         0.011714   
    141. D(O   3,C  14,C  13,H  29)    -31.5251         0.011714   
    142. D(O   3,C  14,C  13,C  12)   -152.5444         0.011714   
    143. D(C  13,C  14,O   3,H  31)   -179.9209         0.028903   
    144. D(O   4,C  14,O   3,H  31)     -0.2632         0.028903   
    -----------------------------------------------------------------

Number of atoms                         .... 32
Number of degrees of freedom            .... 144


         *************************************************************
         *                GEOMETRY OPTIMIZATION CYCLE   1            *
         *************************************************************
---------------------------------
CARTESIAN COORDINATES (ANGSTROEM)
---------------------------------
  O     -2.752900   -1.694400    0.333800
  O     -1.107300    2.879400   -0.196300
  O     -0.484900   -2.118500   -1.075000
  O      3.080800    1.613000   -0.879300
  O      3.151100    0.790700    1.235900
  N      0.733200   -1.222900    0.685000
  C     -1.981200    0.601800    0.045500
  C     -1.658300   -0.819600    0.594400
  C     -0.810300    1.581000    0.306000
  C     -3.244200    1.132500    0.765200
  C     -2.294300    0.554000   -1.463400
  C     -0.426600   -1.469800   -0.032000
  C      2.030000   -1.711500    0.276500
  C      2.753400   -0.725100   -0.630900
  C      3.011600    0.609400    0.034400
  H     -1.532700   -0.782900    1.682900
  H      0.111300    1.250900   -0.180600
  H     -0.612000    1.673000    1.379100
  H     -4.110000    0.483600    0.592600
  H     -3.517800    2.134000    0.414900
  H     -3.081800    1.192000    1.847300
  H     -2.599800    1.536100   -1.842100
  H     -3.119100   -0.127500   -1.694600
  H     -1.421000    0.240300   -2.044500
  H      0.685800   -0.664600    1.532200
  H     -2.789200   -1.875200   -0.620000
  H      2.606100   -1.891600    1.190300
  H      1.905700   -2.668800   -0.241000
  H     -0.991900    2.857700   -1.161100
  H      2.147600   -0.552000   -1.528400
  H      3.719400   -1.136800   -0.941200
  H      3.249300    2.481600   -0.455700

----------------------------
CARTESIAN COORDINATES (A.U.)
----------------------------
  NO LB      ZA    FRAG     MASS         X           Y           Z
   0 O     8.0000    0    15.999   -5.202227   -3.201952    0.630791
   1 O     8.0000    0    15.999   -2.092494    5.441277   -0.370953
   2 O     8.0000    0    15.999   -0.916328   -4.003385   -2.031456
   3 O     8.0000    0    15.999    5.821868    3.048128   -1.661636
   4 O     8.0000    0    15.999    5.954716    1.494206    2.335513
   5 N     7.0000    0    14.007    1.385547   -2.310946    1.294462
   6 C     6.0000    0    12.011   -3.743925    1.137237    0.085983
   7 C     6.0000    0    12.011   -3.133733   -1.548820    1.123253
   8 C     6.0000    0    12.011   -1.531245    2.987657    0.578256
   9 C     6.0000    0    12.011   -6.130650    2.140115    1.446018
  10 C     6.0000    0    12.011   -4.335599    1.046908   -2.765425
  11 C     6.0000    0    12.011   -0.806157   -2.777519   -0.060471
  12 C     6.0000    0    12.011    3.836144   -3.234266    0.522509
  13 C     6.0000    0    12.011    5.203172   -1.370240   -1.192228
  14 C     6.0000    0    12.011    5.691099    1.151599    0.065007
  15 H     1.0000    0     1.008   -2.896383   -1.479467    3.180220
  16 H     1.0000    0     1.008    0.210327    2.363858   -0.341285
  17 H     1.0000    0     1.008   -1.156512    3.161512    2.606121
  18 H     1.0000    0     1.008   -7.766774    0.913872    1.119852
  19 H     1.0000    0     1.008   -6.647679    4.032676    0.784047
  20 H     1.0000    0     1.008   -5.823758    2.252554    3.490891
  21 H     1.0000    0     1.008   -4.912910    2.902808   -3.481065
  22 H     1.0000    0     1.008   -5.894245   -0.240940   -3.202330
  23 H     1.0000    0     1.008   -2.685301    0.454101   -3.863545
  24 H     1.0000    0     1.008    1.295974   -1.255912    2.895438
  25 H     1.0000    0     1.008   -5.270824   -3.543614   -1.171630
  26 H     1.0000    0     1.008    4.924815   -3.574606    2.249341
  27 H     1.0000    0     1.008    3.601251   -5.043301   -0.455424
  28 H     1.0000    0     1.008   -1.874419    5.400270   -2.194161
  29 H     1.0000    0     1.008    4.058376   -1.043129   -2.888257
  30 H     1.0000    0     1.008    7.028647   -2.148241   -1.778610
  31 H     1.0000    0     1.008    6.140287    4.689544   -0.861148

--------------------------------
INTERNAL COORDINATES (ANGSTROEM)
--------------------------------
 O      0   0   0     0.000000000000     0.00000000     0.00000000
 O      1   0   0     4.889647411624     0.00000000     0.00000000
 O      1   2   0     2.703405676180    78.92479259     0.00000000
 O      2   1   3     4.428367596530    93.87079867   337.66689366
 O      4   2   1     2.270504441749    89.37944138   295.44363772
 N      3   1   2     2.320229939036    89.11702262    62.14550510
 C      1   2   3     2.439502453370     1.32925066   235.98922778
 C      1   2   3     1.425249648307    35.63082618    58.74804246
 C      2   1   3     1.423501615735    34.79129078   301.43051435
 C      7   1   8     1.547507537946    90.55316401   235.67705136
 C      7   1   8     1.541783272707    91.27420331   128.19870570
 C      3   1   2     1.229658318396    60.98754710    53.48817695
 C      6   3   1     1.444746500255    97.25077177   164.40638882
 C     13   6   3     1.523045396566   112.07115910    89.99959820
 C      5   4   2     1.223083067498    30.11654555    98.78934193
 H      8   1   2     1.096336855168   106.86214929   119.38216706
 H      9   2   1     1.093202693923   107.11230491   122.27149126
 H      9   2   1     1.095139488832   107.87343368   238.30220901
 H     10   7   1     1.095660353394   111.62700876   328.47496284
 H     10   7   1     1.095704932908   111.62710195   208.67342112
 H     10   7   1     1.095835033205   110.91055701    88.64078213
 H     11   7   1     1.096022057260   111.52929835   147.91136319
 H     11   7   1     1.094618988507   112.27370334    29.16731785
 H     11   7   1     1.094868846027   111.48956155   267.70767521
 H      6   3   1     1.015723136489   145.12067369   343.20608185
 H      1   2   3     0.971463210832    94.60139187   302.45215680
 H     13   6   3     1.095151889009   106.96973159   211.52375817
 H     13   6   3     1.095299059618   109.10551922   328.19874790
 H      2   1   3     0.971919281628    97.27856797    52.24214463
 H     14  13   6     1.096568967279   109.11477857   300.23292667
 H     14  13   6     1.094960720757   110.14233807   181.41783680
 H      4   2   1     0.980966446929    80.94584421   210.39414577

---------------------------
INTERNAL COORDINATES (A.U.)
---------------------------
 O      0   0   0     0.000000000000     0.00000000     0.00000000
 O      1   0   0     9.240094499406     0.00000000     0.00000000
 O      1   2   0     5.108696356868    78.92479259     0.00000000
 O      2   1   3     8.368401977773    93.87079867   337.66689366
 O      4   2   1     4.290631580757    89.37944138   295.44363772
 N      3   1   2     4.384599152503    89.11702262    62.14550510
 C      1   2   3     4.609991539899     1.32925066   235.98922778
 C      1   2   3     2.693331507768    35.63082618    58.74804246
 C      2   1   3     2.690028204933    34.79129078   301.43051435
 C      7   1   8     2.924365436897    90.55316401   235.67705136
 C      7   1   8     2.913548143278    91.27420331   128.19870570
 C      3   1   2     2.323717460066    60.98754710    53.48817695
 C      6   3   1     2.730175218424    97.25077177   164.40638882
 C     13   6   3     2.878138689039   112.07115910    89.99959820
 C      5   4   2     2.311292036607    30.11654555    98.78934193
 H      8   1   2     2.071776406792   106.86214929   119.38216706
 H      9   2   1     2.065853700379   107.11230491   122.27149126
 H      9   2   1     2.069513712336   107.87343368   238.30220901
 H     10   7   1     2.070498003710   111.62700876   328.47496284
 H     10   7   1     2.070582246784   111.62710195   208.67342112
 H     10   7   1     2.070828100714   110.91055701    88.64078213
 H     11   7   1     2.071181524958   111.52929835   147.91136319
 H     11   7   1     2.068530109268   112.27370334    29.16731785
 H     11   7   1     2.069002271553   111.48956155   267.70767521
 H      6   3   1     1.919438555853   145.12067369   343.20608185
 H      1   2   3     1.835799417652    94.60139187   302.45215680
 H     13   6   3     2.069537145274   106.96973159   211.52375817
 H     13   6   3     2.069815257419   109.10551922   328.19874790
 H      2   1   3     1.836661266554    97.27856797    52.24214463
 H     14  13   6     2.072215035115   109.11477857   300.23292667
 H     14  13   6     2.069175889631   110.14233807   181.41783680
 H      4   2   1     1.853757931261    80.94584421   210.39414577

---------------------
BASIS SET INFORMATION
---------------------
There are 4 groups of distinct atoms

 Group   1 Type O   : 11s6p2d contracted to 5s3p2d pattern {62111/411/11}
 Group   2 Type N   : 11s6p1d contracted to 5s3p1d pattern {62111/411/1}
 Group   3 Type C   : 11s6p1d contracted to 5s3p1d pattern {62111/411/1}
 Group   4 Type H   : 5s contracted to 3s pattern {311}

Atom   0O    basis set group =>   1
Atom   1O    basis set group =>   1
Atom   2O    basis set group =>   1
Atom   3O    basis set group =>   1
Atom   4O    basis set group =>   1
Atom   5N    basis set group =>   2
Atom   6C    basis set group =>   3
Atom   7C    basis set group =>   3
Atom   8C    basis set group =>   3
Atom   9C    basis set group =>   3
Atom  10C    basis set group =>   3
Atom  11C    basis set group =>   3
Atom  12C    basis set group =>   3
Atom  13C    basis set group =>   3
Atom  14C    basis set group =>   3
Atom  15H    basis set group =>   4
Atom  16H    basis set group =>   4
Atom  17H    basis set group =>   4
Atom  18H    basis set group =>   4
Atom  19H    basis set group =>   4
Atom  20H    basis set group =>   4
Atom  21H    basis set group =>   4
Atom  22H    basis set group =>   4
Atom  23H    basis set group =>   4
Atom  24H    basis set group =>   4
Atom  25H    basis set group =>   4
Atom  26H    basis set group =>   4
Atom  27H    basis set group =>   4
Atom  28H    basis set group =>   4
Atom  29H    basis set group =>   4
Atom  30H    basis set group =>   4
Atom  31H    basis set group =>   4
---------------------------------
AUXILIARY/J BASIS SET INFORMATION
---------------------------------
There are 4 groups of distinct atoms

 Group   1 Type O   : 8s3p3d contracted to 6s3p3d pattern {311111/111/111}
 Group   2 Type N   : 8s3p3d contracted to 6s3p3d pattern {311111/111/111}
 Group   3 Type C   : 8s3p3d contracted to 6s3p3d pattern {311111/111/111}
 Group   4 Type H   : 5s2p contracted to 3s1p pattern {311/2}

Atom   0O    basis set group =>   1
Atom   1O    basis set group =>   1
Atom   2O    basis set group =>   1
Atom   3O    basis set group =>   1
Atom   4O    basis set group =>   1
Atom   5N    basis set group =>   2
Atom   6C    basis set group =>   3
Atom   7C    basis set group =>   3
Atom   8C    basis set group =>   3
Atom   9C    basis set group =>   3
Atom  10C    basis set group =>   3
Atom  11C    basis set group =>   3
Atom  12C    basis set group =>   3
Atom  13C    basis set group =>   3
Atom  14C    basis set group =>   3
Atom  15H    basis set group =>   4
Atom  16H    basis set group =>   4
Atom  17H    basis set group =>   4
Atom  18H    basis set group =>   4
Atom  19H    basis set group =>   4
Atom  20H    basis set group =>   4
Atom  21H    basis set group =>   4
Atom  22H    basis set group =>   4
Atom  23H    basis set group =>   4
Atom  24H    basis set group =>   4
Atom  25H    basis set group =>   4
Atom  26H    basis set group =>   4
Atom  27H    basis set group =>   4
Atom  28H    basis set group =>   4
Atom  29H    basis set group =>   4
Atom  30H    basis set group =>   4
Atom  31H    basis set group =>   4


           ************************************************************
           *        Program running with 16 parallel MPI-processes    *
           *              working on a common directory               *
           ************************************************************
------------------------------------------------------------------------------
                             ORCA STARTUP CALCULATIONS
                           -- RI-GTO INTEGRALS CHOSEN --
------------------------------------------------------------------------------
------------------------------------------------------------------------------
                   ___                                                        
                  /   \      - P O W E R E D   B Y -                         
                 /     \                                                     
                 |  |  |   _    _      __       _____    __    __             
                 |  |  |  | |  | |    /  \     |  _  \  |  |  /  |          
                  \  \/   | |  | |   /    \    | | | |  |  | /  /          
                 / \  \   | |__| |  /  /\  \   | |_| |  |  |/  /          
                |  |  |   |  __  | /  /__\  \  |    /   |      \           
                |  |  |   | |  | | |   __   |  |    \   |  |\   \          
                \     /   | |  | | |  |  |  |  | |\  \  |  | \   \       
                 \___/    |_|  |_| |__|  |__|  |_| \__\ |__|  \__/        
                                                                              
                      - O R C A' S   B I G   F R I E N D -                    
                                      &                                       
                       - I N T E G R A L  F E E D E R -                       
                                                                              
 v1 FN, 2020, v2 2021, v3 2022-2024                                           
------------------------------------------------------------------------------


----------------------
SHARK INTEGRAL PACKAGE
----------------------

Number of atoms                             ...     32
Number of basis functions                   ...    361
Number of shells                            ...    191
Maximum angular momentum                    ...      2
Integral batch strategy                     ... SHARK/LIBINT Hybrid
RI-J (if used) integral strategy            ... SPLIT-RIJ (Revised 2003 algorithm where possible)
Printlevel                                  ...      1
Contraction scheme used                     ... SEGMENTED contraction
Prescreening option                         ... SCHWARTZ
   Thresh                                   ... 2.500e-11
   Tcut                                     ... 2.500e-12
   Tpresel                                  ... 2.500e-12 
Coulomb Range Separation                    ... NOT USED
Exchange Range Separation                   ... NOT USED
Multipole approximations                    ... NOT USED
Finite Nucleus Model                        ... NOT USED
CABS basis                                  ... NOT available
Auxiliary Coulomb fitting basis             ... AVAILABLE
   # of basis functions in Aux-J            ...    552
   # of shells in Aux-J                     ...    248
   Maximum angular momentum in Aux-J        ...      2
Auxiliary J/K fitting basis                 ... NOT available
Auxiliary Correlation fitting basis         ... NOT available
Auxiliary 'external' fitting basis          ... NOT available

Checking pre-screening integrals            ... done (  0.0 sec) Dimension = 191
Check shell pair data                       ... done (  0.0 sec)
Shell pair information
Shell pair cut-off parameter TPreSel        ...   2.5e-12
Total number of shell pairs                 ...     18336
Shell pairs after pre-screening             ...     15154
Total number of primitive shell pairs       ...     65361
Primitive shell pairs kept                  ...     35769
          la=0 lb=0:   6264 shell pairs
          la=1 lb=0:   4891 shell pairs
          la=1 lb=1:    957 shell pairs
          la=2 lb=0:   2058 shell pairs
          la=2 lb=1:    805 shell pairs
          la=2 lb=2:    179 shell pairs

Calculating one electron integrals          ... done (  0.2 sec)
Calculating RI/J V-Matrix + Cholesky decomp.... done (  0.1 sec)
Calculating Nuclear repulsion               ... done (  0.0 sec) ENN=   1116.261128126334 Eh

Diagonalization of the overlap matrix:
Smallest eigenvalue                        ... 7.444e-05
Time for diagonalization                   ...    0.185 sec
Threshold for overlap eigenvalues          ... 1.000e-07
Number of eigenvalues below threshold      ... 0
Time for construction of square roots      ...    0.006 sec
Total time needed                          ...    0.193 sec

-------------------
DFT GRID GENERATION
-------------------

General Integration Accuracy     IntAcc      ... 4.959
Radial Grid Type                 RadialGrid  ... OptM3 with GC (2021)
Angular Grid (max. ang.)         AngularGrid ... 6 (Lebedev-590)
Angular grid pruning method      GridPruning ... 4 (adaptive)
Weight generation scheme         WeightScheme... mBecke (2022)
Basis function cutoff            BFCut       ... 1.0000e-11
Integration weight cutoff        WCut        ... 1.0000e-14
Partially contracted basis set               ... off
Rotationally invariant grid construction     ... off
Angular grids for H and He will be reduced by one unit
Diffuse basis detected: some atoms will have their outermost
                        angular grid increased by 1.

Total number of grid points                  ...   360425
Total number of batches                      ...     5646
Average number of points per batch           ...       63
Average number of grid points per atom       ...    11263
Initializing property integral containers    ... done (  0.0 sec)

SHARK setup successfully completed in   4.4 seconds

Maximum memory used throughout the entire STARTUP-calculation: 82.8 MB


           ************************************************************
           *        Program running with 16 parallel MPI-processes    *
           *              working on a common directory               *
           ************************************************************
-------------------------------------------------------------------------------
                                 ORCA GUESS
                   Start orbitals & Density for SCF / CASSCF
-------------------------------------------------------------------------------

------------
SCF SETTINGS
------------
Hamiltonian:
 Density Functional     Method          .... DFT(GTOs)
 Exchange Functional    Exchange        .... B973C
 Correlation Functional Correlation     .... B973C
 Gradients option       PostSCFGGA      .... off
 RI-approximation to the Coulomb term is turned on
   Number of AuxJ basis functions       .... 552


General Settings:
 Integral files         IntName         .... m1_00_Vitamin_B5-B97-3C-TZ
 Hartree-Fock type      HFTyp           .... RHF
 Total Charge           Charge          ....    0
 Multiplicity           Mult            ....    1
 Number of Electrons    NEL             ....  118
 Basis Dimension        Dim             ....  361
 Nuclear Repulsion      ENuc            ....   1116.2611281263 Eh

Convergence Acceleration:
 AO-DIIS                CNVDIIS         .... on
   Start iteration      DIISMaxIt       ....    12
   Startup error        DIISStart       ....  0.200000
   # of expansion vecs  DIISMaxEq       ....     5
   Bias factor          DIISBfac        ....   1.050
   Max. coefficient     DIISMaxC        ....  10.000
 MO-DIIS                CNVKDIIS        .... off
 Trust-Rad. Augm. Hess. CNVTRAH         .... off
 SOSCF                  CNVSOSCF        .... on
   Start iteration      SOSCFMaxIt      ....   150
   Startup grad/error   SOSCFStart      ....  0.003300
   Hessian update       SOSCFHessUp     .... L-BFGS
 Level Shifting         CNVShift        .... on
   Level shift para.    LevelShift      ....    0.2500
   Turn off err/grad.   ShiftErr        ....    0.0010
 Zerner damping         CNVZerner       .... off
 Static damping         CNVDamp         .... on
   Fraction old density DampFac         ....    0.7000
   Max. Damping (<1)    DampMax         ....    0.9800
   Min. Damping (>=0)   DampMin         ....    0.0000
   Turn off err/grad.   DampErr         ....    0.1000

SCF Procedure:
 Maximum # iterations   MaxIter         ....   800
 SCF integral mode      SCFMode         .... Direct
   Integral package                     .... SHARK and LIBINT hybrid scheme
 Reset frequency        DirectResetFreq ....    20
 Integral Threshold     Thresh          ....  2.500e-11 Eh
 Primitive CutOff       TCut            ....  2.500e-12 Eh

Convergence Tolerance:
 Convergence Check Mode ConvCheckMode   .... Total+1el-Energy
 Convergence forced     ConvForced      .... 0
 Energy Change          TolE            ....  1.000e-08 Eh
 1-El. energy change                    ....  1.000e-05 Eh
 Orbital Gradient       TolG            ....  1.000e-05
 Orbital Rotation angle TolX            ....  1.000e-05
 DIIS Error             TolErr          ....  5.000e-07

--------------------------------
INITIAL GUESS: MINIMAL BASIS EHT
--------------------------------
The minimal basis has 92 functions
EHT matrix was diagonalized
Basis set overlap was calculated now projecting the orbitals
Using GuessMode=FMatrix for the initial guess
C*T matrix was formed
Effective Fockian was calculated
Effective Fockian was diagonalized
Initial density was built
                      ------------------
                      INITIAL GUESS DONE
                      ------------------
             **** ENERGY FILE WAS UPDATED (m1_00_Vitamin_B5-B97-3C-TZ.en.tmp) ****
Finished Guess after   0.4 sec
Maximum memory used throughout the entire GUESS-calculation: 25.8 MB


           ************************************************************
           *        Program running with 16 parallel MPI-processes    *
           *              working on a common directory               *
           ************************************************************

-------------------------------------------------------------------------------------------
                                      ORCA LEAN-SCF
                              memory conserving SCF solver
-------------------------------------------------------------------------------------------

----------------------------------------D-I-I-S--------------------------------------------
Iteration    Energy (Eh)           Delta-E    RMSDP     MaxDP     DIISErr   Damp  Time(sec)
-------------------------------------------------------------------------------------------
               ***  Starting incremental Fock matrix formation  ***
    1    -780.9144324056162532     0.00e+00  5.17e-03  2.10e-01  5.00e-01  0.700   1.6
Warning: op=0 Small HOMO/LUMO gap (   0.098) - skipping pre-diagonalization
         Will do a full diagonalization
    2    -781.9331759854260326    -1.02e+00  4.21e-03  3.30e-01  3.10e-01  0.700   0.5
    3    -782.4281884852696294    -4.95e-01  2.42e-03  1.48e-01  2.19e-01  0.700   0.5
                               ***Turning on AO-DIIS***
    4    -782.7767031232840509    -3.49e-01  1.47e-03  4.37e-02  1.54e-01  0.700   0.5
    5    -783.0215681061220039    -2.45e-01  1.07e-03  3.03e-02  1.07e-01  0.700   0.5
    6    -783.1941431125537747    -1.73e-01  7.57e-04  2.26e-02  7.42e-02  0.700   0.5
    7    -783.3157925816617535    -1.22e-01  1.84e-03  5.63e-02  5.19e-02  0.000   0.5
    8    -783.5972139823979887    -2.81e-01  3.07e-04  1.31e-02  2.54e-02  0.000   0.5
    9    -783.5993978569301817    -2.18e-03  1.32e-04  7.98e-03  1.05e-02  0.000   0.5
   10    -783.5995342919852646    -1.36e-04  4.39e-05  1.83e-03  7.06e-03  0.000   0.4
                              *** Initializing SOSCF ***
---------------------------------------S-O-S-C-F--------------------------------------
Iteration    Energy (Eh)           Delta-E    RMSDP     MaxDP     MaxGrad    Time(sec)
--------------------------------------------------------------------------------------
   11    -783.5996711764109932    -1.37e-04  1.61e-05  5.29e-04  1.10e-03     0.5
               *** Restarting incremental Fock matrix formation ***
   12    -783.5996771998366057    -6.02e-06  2.17e-05  2.30e-03  8.85e-05     0.5
   13    -783.5996758093447170     1.39e-06  1.09e-05  9.80e-04  2.29e-04     0.4
   14    -783.5996776546676301    -1.85e-06  4.28e-06  3.48e-04  5.63e-05     0.4
   15    -783.5996775011890350     1.53e-07  3.01e-06  2.34e-04  1.47e-04     0.4
   16    -783.5996776721826791    -1.71e-07  1.90e-06  1.59e-04  3.79e-06     0.4
   17    -783.5996776779654738    -5.78e-09  7.50e-07  5.51e-05  4.52e-06     0.4
                 **** Energy Check signals convergence ****

               *****************************************************
               *                     SUCCESS                       *
               *           SCF CONVERGED AFTER  17 CYCLES          *
               *****************************************************

             **** ENERGY FILE WAS UPDATED (m1_00_Vitamin_B5-B97-3C-TZ.en.tmp) ****

----------------
TOTAL SCF ENERGY
----------------

Total Energy       :       -783.59967767796547 Eh          -21322.83126 eV

Components:
Nuclear Repulsion  :       1116.26112812633414 Eh           30375.00953 eV
Electronic Energy  :      -1899.86080580429962 Eh          -51697.84079 eV
One Electron Energy:      -3287.81416620494338 Eh          -89465.97182 eV
Two Electron Energy:       1387.95336040064376 Eh           37768.13103 eV

Virial components:
Potential Energy   :      -1563.90818893926735 Eh          -42556.10533 eV
Kinetic Energy     :        780.30851126130199 Eh           21233.27407 eV
Virial Ratio       :          2.00421777587860

DFT components:
N(Alpha)           :       58.999981710185 electrons
N(Beta)            :       58.999981710185 electrons
N(Total)           :      117.999963420369 electrons
E(XC)              :     -104.439633552761 Eh       

---------------
SCF CONVERGENCE
---------------

  Last Energy change         ...    5.7828e-09  Tolerance :   1.0000e-08
  Last MAX-Density change    ...    5.5068e-05  Tolerance :   1.0000e-07
  Last RMS-Density change    ...    7.5020e-07  Tolerance :   5.0000e-09
  Last DIIS Error            ...    1.1004e-03  Tolerance :   5.0000e-07
  Last Orbital Gradient      ...    4.5249e-06  Tolerance :   1.0000e-05
  Last Orbital Rotation      ...    3.6779e-06  Tolerance :   1.0000e-05


----------------
ORBITAL ENERGIES
----------------

  NO   OCC          E(Eh)            E(eV) 
   0   2.0000     -18.811651      -511.8910 
   1   2.0000     -18.751345      -510.2500 
   2   2.0000     -18.749603      -510.2026 
   3   2.0000     -18.741908      -509.9932 
   4   2.0000     -18.725048      -509.5345 
   5   2.0000     -14.029313      -381.7570 
   6   2.0000     -10.039937      -273.2006 
   7   2.0000      -9.995640      -271.9952 
   8   2.0000      -9.957574      -270.9594 
   9   2.0000      -9.945982      -270.6439 
  10   2.0000      -9.944188      -270.5951 
  11   2.0000      -9.925784      -270.0943 
  12   2.0000      -9.915700      -269.8199 
  13   2.0000      -9.888328      -269.0751 
  14   2.0000      -9.876559      -268.7548 
  15   2.0000      -1.034184       -28.1416 
  16   2.0000      -0.970148       -26.3991 
  17   2.0000      -0.950514       -25.8648 
  18   2.0000      -0.946202       -25.7475 
  19   2.0000      -0.934052       -25.4168 
  20   2.0000      -0.864994       -23.5377 
  21   2.0000      -0.749223       -20.3874 
  22   2.0000      -0.732603       -19.9352 
  23   2.0000      -0.663813       -18.0633 
  24   2.0000      -0.631661       -17.1884 
  25   2.0000      -0.619331       -16.8528 
  26   2.0000      -0.618967       -16.8429 
  27   2.0000      -0.567813       -15.4510 
  28   2.0000      -0.543672       -14.7941 
  29   2.0000      -0.512280       -13.9399 
  30   2.0000      -0.493946       -13.4409 
  31   2.0000      -0.466478       -12.6935 
  32   2.0000      -0.464143       -12.6300 
  33   2.0000      -0.457373       -12.4457 
  34   2.0000      -0.442605       -12.0439 
  35   2.0000      -0.437820       -11.9137 
  36   2.0000      -0.432361       -11.7651 
  37   2.0000      -0.418391       -11.3850 
  38   2.0000      -0.399512       -10.8713 
  39   2.0000      -0.395575       -10.7641 
  40   2.0000      -0.383970       -10.4483 
  41   2.0000      -0.381721       -10.3872 
  42   2.0000      -0.370407       -10.0793 
  43   2.0000      -0.354945        -9.6586 
  44   2.0000      -0.352015        -9.5788 
  45   2.0000      -0.344479        -9.3738 
  46   2.0000      -0.340477        -9.2649 
  47   2.0000      -0.336152        -9.1472 
  48   2.0000      -0.322425        -8.7736 
  49   2.0000      -0.317732        -8.6459 
  50   2.0000      -0.307441        -8.3659 
  51   2.0000      -0.299056        -8.1377 
  52   2.0000      -0.289607        -7.8806 
  53   2.0000      -0.284714        -7.7475 
  54   2.0000      -0.252058        -6.8589 
  55   2.0000      -0.246085        -6.6963 
  56   2.0000      -0.238123        -6.4797 
  57   2.0000      -0.225636        -6.1399 
  58   2.0000      -0.217523        -5.9191 
  59   0.0000      -0.053700        -1.4613 
  60   0.0000      -0.030553        -0.8314 
  61   0.0000      -0.007299        -0.1986 
  62   0.0000       0.006637         0.1806 
  63   0.0000       0.011275         0.3068 
  64   0.0000       0.037513         1.0208 
  65   0.0000       0.042957         1.1689 
  66   0.0000       0.052542         1.4297 
  67   0.0000       0.063114         1.7174 
  68   0.0000       0.070423         1.9163 
  69   0.0000       0.076546         2.0829 
*Only the first 10 virtual orbitals were printed.

                    ********************************
                    * MULLIKEN POPULATION ANALYSIS *
                    ********************************

-----------------------
MULLIKEN ATOMIC CHARGES
-----------------------
   0 O :   -0.558403
   1 O :   -0.546191
   2 O :   -0.426760
   3 O :   -0.503471
   4 O :   -0.386842
   5 N :   -0.394606
   6 C :    0.283107
   7 C :   -0.131550
   8 C :   -0.356839
   9 C :   -0.560782
  10 C :   -0.710537
  11 C :    0.342860
  12 C :   -0.251950
  13 C :   -0.271728
  14 C :    0.325202
  15 H :    0.200887
  16 H :    0.228365
  17 H :    0.167485
  18 H :    0.186800
  19 H :    0.189910
  20 H :    0.155423
  21 H :    0.187510
  22 H :    0.186429
  23 H :    0.196610
  24 H :    0.354359
  25 H :    0.429531
  26 H :    0.192497
  27 H :    0.205011
  28 H :    0.430425
  29 H :    0.205921
  30 H :    0.195781
  31 H :    0.435546
Sum of atomic charges:    0.0000000

--------------------------------
MULLIKEN REDUCED ORBITAL CHARGES
--------------------------------
  0 O s       :     3.812096  s :     3.812096
      pz      :     1.462311  p :     4.714944
      px      :     1.576523
      py      :     1.676111
      dz2     :     0.020386  d :     0.031362
      dxz     :     0.001625
      dyz     :     0.003123
      dx2y2   :     0.000712
      dxy     :     0.005517

  1 O s       :     3.810486  s :     3.810486
      pz      :     1.360877  p :     4.703140
      px      :     1.875649
      py      :     1.466614
      dz2     :     0.018918  d :     0.032565
      dxz     :     0.005720
      dyz     :    -0.000139
      dx2y2   :     0.003671
      dxy     :     0.004396

  2 O s       :     3.848293  s :     3.848293
      pz      :     1.341480  p :     4.544009
      px      :     1.775501
      py      :     1.427027
      dz2     :     0.012474  d :     0.034458
      dxz     :     0.005659
      dyz     :     0.010167
      dx2y2   :     0.003739
      dxy     :     0.002419

  3 O s       :     3.777009  s :     3.777009
      pz      :     1.636566  p :     4.691323
      px      :     1.778376
      py      :     1.276382
      dz2     :     0.010174  d :     0.035138
      dxz     :     0.005498
      dyz     :     0.014303
      dx2y2   :     0.002170
      dxy     :     0.002994

  4 O s       :     3.843952  s :     3.843952
      pz      :     1.318246  p :     4.512992
      px      :     1.435812
      py      :     1.758934
      dz2     :     0.015926  d :     0.029898
      dxz     :     0.006504
      dyz     :     0.004044
      dx2y2   :     0.001541
      dxy     :     0.001882

  5 N s       :     3.358306  s :     3.358306
      pz      :     1.331540  p :     3.996966
      px      :     1.161141
      py      :     1.504285
      dz2     :     0.006580  d :     0.039334
      dxz     :     0.010021
      dyz     :     0.007134
      dx2y2   :     0.009005
      dxy     :     0.006595

  6 C s       :     2.899864  s :     2.899864
      pz      :     0.919670  p :     2.764509
      px      :     0.930214
      py      :     0.914626
      dz2     :     0.013337  d :     0.052520
      dxz     :     0.009420
      dyz     :     0.008333
      dx2y2   :     0.009416
      dxy     :     0.012014

  7 C s       :     3.153166  s :     3.153166
      pz      :     1.088009  p :     2.908767
      px      :     0.860167
      py      :     0.960591
      dz2     :     0.016702  d :     0.069617
      dxz     :     0.009019
      dyz     :     0.007538
      dx2y2   :     0.018829
      dxy     :     0.017529

  8 C s       :     3.332866  s :     3.332866
      pz      :     1.134180  p :     2.959643
      px      :     1.029782
      py      :     0.795681
      dz2     :     0.015137  d :     0.064330
      dxz     :     0.007663
      dyz     :     0.008826
      dx2y2   :     0.014586
      dxy     :     0.018118

  9 C s       :     3.283563  s :     3.283563
      pz      :     1.085858  p :     3.240487
      px      :     1.030976
      py      :     1.123653
      dz2     :     0.012476  d :     0.036731
      dxz     :     0.004484
      dyz     :     0.003083
      dx2y2   :     0.007036
      dxy     :     0.009652

 10 C s       :     3.366966  s :     3.366966
      pz      :     0.995032  p :     3.306539
      px      :     1.148654
      py      :     1.162853
      dz2     :     0.008584  d :     0.037032
      dxz     :     0.009215
      dyz     :     0.005988
      dx2y2   :     0.005214
      dxy     :     0.008030

 11 C s       :     3.051960  s :     3.051960
      pz      :     0.743017  p :     2.499566
      px      :     0.917699
      py      :     0.838850
      dz2     :     0.023270  d :     0.105613
      dxz     :     0.035881
      dyz     :     0.014177
      dx2y2   :     0.012419
      dxy     :     0.019866

 12 C s       :     3.211195  s :     3.211195
      pz      :     1.060853  p :     2.984779
      px      :     0.866856
      py      :     1.057071
      dz2     :     0.007664  d :     0.055976
      dxz     :     0.014329
      dyz     :     0.009890
      dx2y2   :     0.012886
      dxy     :     0.011209

 13 C s       :     3.097508  s :     3.097508
      pz      :     1.027593  p :     3.131989
      px      :     1.132389
      py      :     0.972006
      dz2     :     0.006922  d :     0.042231
      dxz     :     0.009154
      dyz     :     0.009477
      dx2y2   :     0.009579
      dxy     :     0.007099

 14 C s       :     3.142224  s :     3.142224
      pz      :     0.778986  p :     2.418011
      px      :     0.764734
      py      :     0.874291
      dz2     :     0.025546  d :     0.114563
      dxz     :     0.023950
      dyz     :     0.048580
      dx2y2   :     0.007334
      dxy     :     0.009153

 15 H s       :     0.799113  s :     0.799113

 16 H s       :     0.771635  s :     0.771635

 17 H s       :     0.832515  s :     0.832515

 18 H s       :     0.813200  s :     0.813200

 19 H s       :     0.810090  s :     0.810090

 20 H s       :     0.844577  s :     0.844577

 21 H s       :     0.812490  s :     0.812490

 22 H s       :     0.813571  s :     0.813571

 23 H s       :     0.803390  s :     0.803390

 24 H s       :     0.645641  s :     0.645641

 25 H s       :     0.570469  s :     0.570469

 26 H s       :     0.807503  s :     0.807503

 27 H s       :     0.794989  s :     0.794989

 28 H s       :     0.569575  s :     0.569575

 29 H s       :     0.794079  s :     0.794079

 30 H s       :     0.804219  s :     0.804219

 31 H s       :     0.564454  s :     0.564454



                     *******************************
                     * LOEWDIN POPULATION ANALYSIS *
                     *******************************

----------------------
LOEWDIN ATOMIC CHARGES
----------------------
   0 O :   -0.716007
   1 O :   -0.753226
   2 O :   -0.522669
   3 O :   -0.516825
   4 O :   -0.433667
   5 N :   -0.232406
   6 C :   -0.095594
   7 C :    0.097780
   8 C :    0.015566
   9 C :   -0.388173
  10 C :   -0.390565
  11 C :    0.278010
  12 C :   -0.168455
  13 C :   -0.231759
  14 C :    0.361492
  15 H :    0.191371
  16 H :    0.175232
  17 H :    0.179434
  18 H :    0.171460
  19 H :    0.170084
  20 H :    0.155118
  21 H :    0.164982
  22 H :    0.169238
  23 H :    0.168337
  24 H :    0.295808
  25 H :    0.369559
  26 H :    0.172412
  27 H :    0.183603
  28 H :    0.358825
  29 H :    0.196235
  30 H :    0.192749
  31 H :    0.382052

-------------------------------
LOEWDIN REDUCED ORBITAL CHARGES
-------------------------------
  0 O s       :     3.548362  s :     3.548362
      pz      :     1.486084  p :     4.808987
      px      :     1.622753
      py      :     1.700150
      dz2     :     0.078009  d :     0.358658
      dxz     :     0.064193
      dyz     :     0.050637
      dx2y2   :     0.083022
      dxy     :     0.082797

  1 O s       :     3.562534  s :     3.562534
      pz      :     1.418132  p :     4.848523
      px      :     1.878510
      py      :     1.551881
      dz2     :     0.085074  d :     0.342169
      dxz     :     0.028384
      dyz     :     0.072839
      dx2y2   :     0.069871
      dxy     :     0.086001

  2 O s       :     3.555809  s :     3.555809
      pz      :     1.473866  p :     4.682610
      px      :     1.733407
      py      :     1.475337
      dz2     :     0.068450  d :     0.284249
      dxz     :     0.065047
      dyz     :     0.073290
      dx2y2   :     0.042112
      dxy     :     0.035350

  3 O s       :     3.531077  s :     3.531077
      pz      :     1.644983  p :     4.723810
      px      :     1.743909
      py      :     1.334918
      dz2     :     0.061426  d :     0.261937
      dxz     :     0.035203
      dyz     :     0.071549
      dx2y2   :     0.060280
      dxy     :     0.033480

  4 O s       :     3.551038  s :     3.551038
      pz      :     1.481844  p :     4.638192
      px      :     1.424668
      py      :     1.731680
      dz2     :     0.085149  d :     0.244437
      dxz     :     0.049143
      dyz     :     0.077172
      dx2y2   :     0.018578
      dxy     :     0.014395

  5 N s       :     3.128938  s :     3.128938
      pz      :     1.330101  p :     4.028698
      px      :     1.216151
      py      :     1.482446
      dz2     :     0.012798  d :     0.074770
      dxz     :     0.019910
      dyz     :     0.010438
      dx2y2   :     0.018657
      dxy     :     0.012967

  6 C s       :     2.865233  s :     2.865233
      pz      :     1.066043  p :     3.126784
      px      :     1.060301
      py      :     1.000441
      dz2     :     0.027212  d :     0.103577
      dxz     :     0.018415
      dyz     :     0.015590
      dx2y2   :     0.018362
      dxy     :     0.023998

  7 C s       :     2.830320  s :     2.830320
      pz      :     1.040482  p :     2.934754
      px      :     0.923528
      py      :     0.970744
      dz2     :     0.030919  d :     0.137147
      dxz     :     0.017525
      dyz     :     0.013797
      dx2y2   :     0.037993
      dxy     :     0.036912

  8 C s       :     2.871346  s :     2.871346
      pz      :     1.054223  p :     2.987496
      px      :     1.043046
      py      :     0.890227
      dz2     :     0.028383  d :     0.125593
      dxz     :     0.011930
      dyz     :     0.018259
      dx2y2   :     0.029128
      dxy     :     0.037892

  9 C s       :     2.983653  s :     2.983653
      pz      :     1.117734  p :     3.344794
      px      :     1.092227
      py      :     1.134833
      dz2     :     0.019267  d :     0.059725
      dxz     :     0.008118
      dyz     :     0.004636
      dx2y2   :     0.011922
      dxy     :     0.015782

 10 C s       :     2.979189  s :     2.979189
      pz      :     1.068861  p :     3.350756
      px      :     1.145872
      py      :     1.136024
      dz2     :     0.015689  d :     0.060619
      dxz     :     0.015304
      dyz     :     0.009949
      dx2y2   :     0.007724
      dxy     :     0.011953

 11 C s       :     2.777176  s :     2.777176
      pz      :     0.929184  p :     2.714906
      px      :     0.941571
      py      :     0.844152
      dz2     :     0.047705  d :     0.229908
      dxz     :     0.079842
      dyz     :     0.035763
      dx2y2   :     0.025726
      dxy     :     0.040873

 12 C s       :     2.909930  s :     2.909930
      pz      :     1.110773  p :     3.153692
      px      :     0.955406
      py      :     1.087512
      dz2     :     0.013057  d :     0.104833
      dxz     :     0.027259
      dyz     :     0.018070
      dx2y2   :     0.023910
      dxy     :     0.022538

 13 C s       :     2.928335  s :     2.928335
      pz      :     1.089943  p :     3.229796
      px      :     1.103735
      py      :     1.036118
      dz2     :     0.011660  d :     0.073628
      dxz     :     0.015114
      dyz     :     0.018104
      dx2y2   :     0.016127
      dxy     :     0.012624

 14 C s       :     2.762000  s :     2.762000
      pz      :     0.970646  p :     2.622930
      px      :     0.727109
      py      :     0.925176
      dz2     :     0.066005  d :     0.253579
      dxz     :     0.044756
      dyz     :     0.111353
      dx2y2   :     0.015761
      dxy     :     0.015703

 15 H s       :     0.808629  s :     0.808629

 16 H s       :     0.824768  s :     0.824768

 17 H s       :     0.820566  s :     0.820566

 18 H s       :     0.828540  s :     0.828540

 19 H s       :     0.829916  s :     0.829916

 20 H s       :     0.844882  s :     0.844882

 21 H s       :     0.835018  s :     0.835018

 22 H s       :     0.830762  s :     0.830762

 23 H s       :     0.831663  s :     0.831663

 24 H s       :     0.704192  s :     0.704192

 25 H s       :     0.630441  s :     0.630441

 26 H s       :     0.827588  s :     0.827588

 27 H s       :     0.816397  s :     0.816397

 28 H s       :     0.641175  s :     0.641175

 29 H s       :     0.803765  s :     0.803765

 30 H s       :     0.807251  s :     0.807251

 31 H s       :     0.617948  s :     0.617948



                      *****************************
                      * MAYER POPULATION ANALYSIS *
                      *****************************

  NA   - Mulliken gross atomic population
  ZA   - Total nuclear charge
  QA   - Mulliken gross atomic charge
  VA   - Mayer's total valence
  BVA  - Mayer's bonded valence
  FA   - Mayer's free valence

  ATOM       NA         ZA         QA         VA         BVA        FA
  0 O      8.5584     8.0000    -0.5584     1.8417     1.8417    -0.0000
  1 O      8.5462     8.0000    -0.5462     1.7912     1.7912    -0.0000
  2 O      8.4268     8.0000    -0.4268     2.1157     2.1157     0.0000
  3 O      8.5035     8.0000    -0.5035     1.9224     1.9224    -0.0000
  4 O      8.3868     8.0000    -0.3868     2.0777     2.0777    -0.0000
  5 N      7.3946     7.0000    -0.3946     2.9527     2.9527    -0.0000
  6 C      5.7169     6.0000     0.2831     3.2105     3.2105     0.0000
  7 C      6.1315     6.0000    -0.1315     3.4985     3.4985     0.0000
  8 C      6.3568     6.0000    -0.3568     3.6870     3.6870     0.0000
  9 C      6.5608     6.0000    -0.5608     3.7386     3.7386    -0.0000
 10 C      6.7105     6.0000    -0.7105     3.7748     3.7748    -0.0000
 11 C      5.6571     6.0000     0.3429     4.1080     4.1080    -0.0000
 12 C      6.2520     6.0000    -0.2520     3.8300     3.8300     0.0000
 13 C      6.2717     6.0000    -0.2717     3.5627     3.5627     0.0000
 14 C      5.6748     6.0000     0.3252     4.0493     4.0493    -0.0000
 15 H      0.7991     1.0000     0.2009     0.9225     0.9225     0.0000
 16 H      0.7716     1.0000     0.2284     0.9020     0.9020     0.0000
 17 H      0.8325     1.0000     0.1675     0.9498     0.9498     0.0000
 18 H      0.8132     1.0000     0.1868     0.9616     0.9616    -0.0000
 19 H      0.8101     1.0000     0.1899     0.9603     0.9603    -0.0000
 20 H      0.8446     1.0000     0.1554     0.9562     0.9562    -0.0000
 21 H      0.8125     1.0000     0.1875     0.9500     0.9500     0.0000
 22 H      0.8136     1.0000     0.1864     0.9582     0.9582    -0.0000
 23 H      0.8034     1.0000     0.1966     0.9441     0.9441    -0.0000
 24 H      0.6456     1.0000     0.3544     0.8564     0.8564    -0.0000
 25 H      0.5705     1.0000     0.4295     0.8116     0.8116     0.0000
 26 H      0.8075     1.0000     0.1925     0.9368     0.9368    -0.0000
 27 H      0.7950     1.0000     0.2050     0.9571     0.9571     0.0000
 28 H      0.5696     1.0000     0.4304     0.7854     0.7854    -0.0000
 29 H      0.7941     1.0000     0.2059     0.9651     0.9651     0.0000
 30 H      0.8042     1.0000     0.1958     0.9455     0.9455     0.0000
 31 H      0.5645     1.0000     0.4355     0.7952     0.7952     0.0000

  Mayer bond orders larger than 0.100000
B(  0-O ,  7-C ) :   1.1243 B(  0-O , 25-H ) :   0.7462 B(  1-O ,  8-C ) :   1.0489 
B(  1-O , 28-H ) :   0.7699 B(  2-O , 11-C ) :   1.9396 B(  3-O , 14-C ) :   1.1102 
B(  3-O , 31-H ) :   0.7436 B(  4-O , 14-C ) :   1.9622 B(  5-N , 11-C ) :   1.1952 
B(  5-N , 12-C ) :   0.8816 B(  5-N , 24-H ) :   0.8115 B(  6-C ,  7-C ) :   0.7889 
B(  6-C ,  8-C ) :   0.8562 B(  6-C ,  9-C ) :   1.0086 B(  6-C , 10-C ) :   0.8768 
B(  7-C , 11-C ) :   0.8494 B(  7-C , 15-H ) :   0.9354 B(  8-C , 16-H ) :   0.9316 
B(  8-C , 17-H ) :   0.9431 B(  9-C , 18-H ) :   0.9539 B(  9-C , 19-H ) :   0.9516 
B(  9-C , 20-H ) :   0.9514 B( 10-C , 21-H ) :   0.9588 B( 10-C , 22-H ) :   0.9643 
B( 10-C , 23-H ) :   0.9452 B( 12-C , 13-C ) :   0.9321 B( 12-C , 26-H ) :   0.9391 
B( 12-C , 27-H ) :   0.9337 B( 13-C , 14-C ) :   0.9395 B( 13-C , 29-H ) :   0.9418 
B( 13-C , 30-H ) :   0.9029 


------------------
HIRSHFELD ANALYSIS
------------------

Total integrated alpha density =     58.999981710
Total integrated beta density  =     58.999981710

  ATOM     CHARGE      SPIN    
   0 O   -0.234272    0.000000
   1 O   -0.235508    0.000000
   2 O   -0.294695    0.000000
   3 O   -0.175158    0.000000
   4 O   -0.289397    0.000000
   5 N   -0.104781    0.000000
   6 C    0.010536    0.000000
   7 C    0.057715    0.000000
   8 C    0.027372    0.000000
   9 C   -0.083677    0.000000
  10 C   -0.084852    0.000000
  11 C    0.165125    0.000000
  12 C    0.018534    0.000000
  13 C   -0.040342    0.000000
  14 C    0.215208    0.000000
  15 H    0.038311    0.000000
  16 H    0.010948    0.000000
  17 H    0.033308    0.000000
  18 H    0.025498    0.000000
  19 H    0.026309    0.000000
  20 H    0.022963    0.000000
  21 H    0.027189    0.000000
  22 H    0.031741    0.000000
  23 H    0.020527    0.000000
  24 H    0.131375    0.000000
  25 H    0.148920    0.000000
  26 H    0.039728    0.000000
  27 H    0.046947    0.000000
  28 H    0.155355    0.000000
  29 H    0.044663    0.000000
  30 H    0.054899    0.000000
  31 H    0.189550    0.000000

  TOTAL   0.000037    0.000000

-------------------------
CHELPG CHARGES GENERATION
-------------------------
Grid spacing                       ...     0.300000
Point Cut-Off                      ...     2.800000
Van-der-Waals Radii                ...        COSMO
Total charge                       ...            0
Dipole moment constraint           ...        FALSE


Number of points X direction       ...           44
Number of points Y direction       ...           37
Number of points Z direction       ...           31
Maximum number of possible points  ...        50468
Final number of points             ...        16741


Grid generated                     ...   0.0 sec
Potential calculated               ...   0.3 sec
RespFile stored                    ... ok
Charges calculated                 ...   0.1 sec
CHELPG Charges            
--------------------------------
  0   O   :      -0.561014
  1   O   :      -0.612067
  2   O   :      -0.504918
  3   O   :      -0.574642
  4   O   :      -0.510977
  5   N   :      -0.446800
  6   C   :       0.503109
  7   C   :      -0.018022
  8   C   :       0.121238
  9   C   :      -0.243995
 10   C   :      -0.648042
 11   C   :       0.496657
 12   C   :      -0.020376
 13   C   :      -0.168332
 14   C   :       0.619803
 15   H   :       0.073547
 16   H   :      -0.004754
 17   H   :       0.039533
 18   H   :       0.056266
 19   H   :       0.064324
 20   H   :       0.038388
 21   H   :       0.143140
 22   H   :       0.159828
 23   H   :       0.143876
 24   H   :       0.276960
 25   H   :       0.374189
 26   H   :       0.089215
 27   H   :       0.103475
 28   H   :       0.382303
 29   H   :       0.114921
 30   H   :       0.092134
 31   H   :       0.421031
--------------------------------
Total charge:     0.000000
--------------------------------

CHELPG charges calculated...

Timings:
Grid generation                 ...        0.005 sec (=   0.000 min)
Potential calculation           ...        0.323 sec (=   0.005 min)
Fit to the potential            ...        0.070 sec (=   0.001 min)
------------------------------------------------------------------------------

-------
TIMINGS
-------

Total SCF time: 0 days 0 hours 0 min 10 sec 

Total time                  ....      10.401 sec
Sum of individual times     ....      10.230 sec  ( 98.4%)

SCF preparation             ....       0.383 sec  (  3.7%)
Fock matrix formation       ....       7.902 sec  ( 76.0%)
  Startup                   ....       0.022 sec  (  0.3% of F)
  Split-RI-J                ....       1.621 sec  ( 20.5% of F)
  XC integration            ....       5.903 sec  ( 74.7% of F)
    XC Preparation          ....       0.000 sec  (  0.0% of XC)
    Basis function eval.    ....       1.353 sec  ( 22.9% of XC)
    Density eval.           ....       1.323 sec  ( 22.4% of XC)
    XC-Functional eval.     ....       0.166 sec  (  2.8% of XC)
    XC-Potential eval.      ....       1.130 sec  ( 19.1% of XC)
Diagonalization             ....       0.000 sec  (  0.0%)
Density matrix formation    ....       0.080 sec  (  0.8%)
Total Energy calculation    ....       0.034 sec  (  0.3%)
Population analysis         ....       1.109 sec  ( 10.7%)
Orbital Transformation      ....       0.067 sec  (  0.6%)
Orbital Orthonormalization  ....       0.000 sec  (  0.0%)
DIIS solution               ....       0.500 sec  (  4.8%)
SOSCF solution              ....       0.154 sec  (  1.5%)
Finished LeanSCF after  10.4 sec

Maximum memory used throughout the entire LEANSCF-calculation: 64.4 MB


           ************************************************************
           *        Program running with 16 parallel MPI-processes    *
           *              working on a common directory               *
           ************************************************************

------------------------------------------------------------------------------
                         ORCA PROPERTY INTEGRAL CALCULATIONS
------------------------------------------------------------------------------

GBWName                                   ... m1_00_Vitamin_B5-B97-3C-TZ.gbw
Number of atoms                           ...     32
Number of basis functions                 ...    361
Max core memory                           ...   6000 MB

[...]
 25:    397.43   0.000159    0.80  0.000125  ( 0.009595  0.002412  0.005173)
 26:    410.34   0.000816    4.13  0.000621  ( 0.009025  0.018204 -0.014420)
 27:    446.95   0.000158    0.80  0.000110  ( 0.009362 -0.002255  0.004168)
 28:    501.78   0.008326   42.07  0.005178  (-0.069307  0.006752 -0.018129)
 29:    505.14   0.013614   68.80  0.008411  ( 0.027649 -0.075277  0.044493)
 30:    536.10   0.007573   38.27  0.004408  (-0.023462  0.056996 -0.024682)
 31:    572.45   0.022357  112.98  0.012188  ( 0.017705  0.074279 -0.079730)
 32:    613.12   0.000122    0.62  0.000062  ( 0.001517  0.006183 -0.004646)
 33:    622.45   0.002620   13.24  0.001314  (-0.030797 -0.009407 -0.016634)
 34:    669.20   0.015720   79.44  0.007331  (-0.082235  0.021433 -0.010434)
 35:    715.90   0.000196    0.99  0.000085  ( 0.008334  0.003932  0.000720)
 36:    735.54   0.002930   14.81  0.001243  (-0.006197 -0.034467 -0.004102)
 37:    788.62   0.000501    2.53  0.000198  (-0.012731 -0.002604 -0.005404)
 38:    812.03   0.000524    2.65  0.000201  ( 0.011938  0.003397  0.006871)
 39:    874.64   0.001538    7.77  0.000549  ( 0.013544 -0.016836  0.009048)
 40:    876.84   0.001293    6.54  0.000460  (-0.011605  0.012680 -0.012838)
 41:    913.87   0.002112   10.67  0.000721  ( 0.001387  0.026814 -0.000430)
 42:    930.19   0.004559   23.04  0.001529  (-0.037098 -0.009167 -0.008316)
 43:    957.55   0.000488    2.47  0.000159  (-0.008381 -0.007110  0.006187)
 44:    997.15   0.003269   16.52  0.001023  (-0.015467  0.022968 -0.016004)
 45:   1003.80   0.000896    4.53  0.000278  (-0.011074 -0.011810 -0.004045)
 46:   1027.05   0.018992   95.98  0.005771  ( 0.014582  0.074458 -0.003719)
 47:   1036.06   0.011479   58.01  0.003458  ( 0.010100  0.057628 -0.005878)
 48:   1055.29   0.002154   10.88  0.000637  (-0.016844  0.012805 -0.013753)
 49:   1080.07   0.008001   40.43  0.002312  (-0.035641 -0.029190  0.013760)
 50:   1107.42   0.004147   20.96  0.001169  (-0.033030  0.004066 -0.007811)
 51:   1147.52   0.010693   54.04  0.002908  ( 0.017243  0.048471 -0.016161)
 52:   1153.32   0.044436  224.56  0.012023  (-0.061552 -0.083235  0.036148)
 53:   1189.27   0.003955   19.99  0.001038  ( 0.031717  0.005338 -0.001833)
 54:   1225.98   0.000412    2.08  0.000105  (-0.008424 -0.005192 -0.002634)
 55:   1232.06   0.004544   22.96  0.001151  ( 0.033257  0.006686  0.000470)
 56:   1245.03   0.000499    2.52  0.000125  ( 0.010656  0.003185  0.001115)
 57:   1260.55   0.003203   16.19  0.000793  ( 0.009207 -0.026585  0.001195)
 58:   1287.76   0.004589   23.19  0.001112  ( 0.013171 -0.027845  0.012778)
 59:   1304.59   0.015242   77.03  0.003646  (-0.060268 -0.003305  0.001666)
 60:   1327.50   0.004099   20.72  0.000964  ( 0.026863 -0.015450  0.001834)
 61:   1342.84   0.000234    1.18  0.000054  (-0.007034 -0.002068  0.000778)
 62:   1384.22   0.000068    0.35  0.000015  (-0.000522 -0.000083  0.003888)
 63:   1395.64   0.002403   12.14  0.000537  (-0.002191  0.007469  0.021833)
 64:   1395.82   0.002609   13.18  0.000583  ( 0.019271  0.014451 -0.001760)
 65:   1403.80   0.009812   49.59  0.002181  (-0.028582 -0.033972  0.014500)
 66:   1414.95   0.005510   27.85  0.001215  ( 0.007219 -0.032168  0.011332)
 67:   1427.76   0.004761   24.06  0.001041  (-0.021722 -0.023343 -0.004887)
 68:   1450.31   0.019923  100.68  0.004287  (-0.052795 -0.031482 -0.022550)
 69:   1454.46   0.004665   23.57  0.001001  (-0.017270  0.002358  0.026402)
 70:   1476.48   0.003616   18.28  0.000764  (-0.007172 -0.026529 -0.003016)
 71:   1485.75   0.000266    1.34  0.000056  ( 0.005648 -0.001629  0.004614)
 72:   1496.22   0.001066    5.39  0.000222  (-0.002619 -0.005323  0.013680)
 73:   1503.48   0.000118    0.59  0.000024  (-0.002602 -0.003641 -0.002095)
 74:   1511.96   0.001793    9.06  0.000370  ( 0.011236  0.015521 -0.001712)
 75:   1525.80   0.001534    7.75  0.000314  ( 0.012391 -0.011814  0.004552)
 76:   1543.82   0.033246  168.01  0.006720  (-0.080144  0.009429 -0.014434)
 77:   1706.26   0.036123  182.55  0.006607  ( 0.038223  0.044267  0.056445)
 78:   1771.57   0.044530  225.04  0.007844  (-0.018394 -0.007034  0.086349)
 79:   2963.78   0.016872   85.26  0.001776  (-0.036621  0.020836  0.001104)
 80:   2980.02   0.006343   32.06  0.000664  ( 0.013283  0.001774  0.022016)
 81:   2998.45   0.008228   41.58  0.000856  ( 0.002991  0.005732 -0.028541)
 82:   3004.39   0.003482   17.60  0.000362  (-0.011078  0.013674  0.007211)
 83:   3013.17   0.002248   11.36  0.000233  (-0.012757 -0.003306  0.007692)
 84:   3023.90   0.007538   38.10  0.000778  (-0.002911  0.004394  0.027389)
 85:   3044.19   0.003133   15.83  0.000321  (-0.012590  0.011350 -0.005817)
 86:   3061.86   0.005013   25.33  0.000511  (-0.017620  0.012320 -0.006977)
 87:   3063.87   0.005124   25.89  0.000522  (-0.009599  0.019959  0.005602)
 88:   3075.59   0.006873   34.73  0.000697  (-0.016112  0.009001 -0.018887)
 89:   3090.14   0.003807   19.24  0.000384  (-0.019487 -0.002073  0.000651)
 90:   3102.70   0.003567   18.03  0.000359  ( 0.008035  0.017090 -0.001462)
 91:   3105.65   0.000735    3.71  0.000074  (-0.001738 -0.003700 -0.007558)
 92:   3575.24   0.005108   25.81  0.000446  ( 0.011772  0.010782  0.013822)
 93:   3620.55   0.012491   63.13  0.001077  ( 0.017769 -0.020726 -0.018203)
 94:   3664.23   0.008457   42.74  0.000720  ( 0.008357  0.024623  0.006639)
 95:   3750.90   0.002747   13.88  0.000229  ( 0.002566 -0.008710  0.012086)

* The epsilon (eps) is given for a Dirac delta lineshape.
** The dipole moment derivative (T) already includes vibrational overlap.

The first frequency considered to be a vibration is 6
The total number of vibrations considered is 90


--------------------------
THERMOCHEMISTRY AT 298.15K
--------------------------

Temperature         ...   298.15 K
Pressure            ...     1.00 atm
Total Mass          ...   219.24 AMU
Quasi RRHO          ...     True
Cut-Off Frequency   ...     1.00 cm^-1

Throughout the following assumptions are being made:
  (1) The electronic state is orbitally nondegenerate
  (2) There are no thermally accessible electronically excited states
  (3) Hindered rotations indicated by low frequency modes are not
      treated as such but are treated as vibrations and this may
      cause some error
  (4) All equations used are the standard statistical mechanics
      equations for an ideal gas
  (5) All vibrations are strictly harmonic

freq.      20.87  E(vib)   ...       0.56 
freq.      28.15  E(vib)   ...       0.55 
freq.      47.40  E(vib)   ...       0.53 
freq.      58.44  E(vib)   ...       0.51 
freq.      89.61  E(vib)   ...       0.47 
freq.     102.93  E(vib)   ...       0.46 
freq.     127.55  E(vib)   ...       0.43 
freq.     154.02  E(vib)   ...       0.40 
freq.     199.50  E(vib)   ...       0.35 
freq.     219.17  E(vib)   ...       0.33 
freq.     240.90  E(vib)   ...       0.31 
freq.     256.57  E(vib)   ...       0.30 
freq.     261.70  E(vib)   ...       0.30 
freq.     294.17  E(vib)   ...       0.27 
freq.     305.12  E(vib)   ...       0.26 
freq.     313.33  E(vib)   ...       0.25 
freq.     316.67  E(vib)   ...       0.25 
freq.     347.23  E(vib)   ...       0.23 
freq.     383.89  E(vib)   ...       0.20 
freq.     397.43  E(vib)   ...       0.20 
freq.     410.34  E(vib)   ...       0.19 
freq.     446.95  E(vib)   ...       0.17 
freq.     501.78  E(vib)   ...       0.14 
freq.     505.14  E(vib)   ...       0.14 
freq.     536.10  E(vib)   ...       0.12 
freq.     572.45  E(vib)   ...       0.11 
freq.     613.12  E(vib)   ...       0.10 
freq.     622.45  E(vib)   ...       0.09 
freq.     669.20  E(vib)   ...       0.08 
freq.     715.90  E(vib)   ...       0.07 
freq.     735.54  E(vib)   ...       0.06 
freq.     788.62  E(vib)   ...       0.05 
freq.     812.03  E(vib)   ...       0.05 
freq.     874.64  E(vib)   ...       0.04 
freq.     876.84  E(vib)   ...       0.04 
freq.     913.87  E(vib)   ...       0.03 
freq.     930.19  E(vib)   ...       0.03 
freq.     957.55  E(vib)   ...       0.03 
freq.     997.15  E(vib)   ...       0.02 
freq.    1003.80  E(vib)   ...       0.02 
freq.    1027.05  E(vib)   ...       0.02 
freq.    1036.06  E(vib)   ...       0.02 
freq.    1055.29  E(vib)   ...       0.02 
freq.    1080.07  E(vib)   ...       0.02 
freq.    1107.42  E(vib)   ...       0.02 
freq.    1147.52  E(vib)   ...       0.01 
freq.    1153.32  E(vib)   ...       0.01 
freq.    1189.27  E(vib)   ...       0.01 
freq.    1225.98  E(vib)   ...       0.01 
freq.    1232.06  E(vib)   ...       0.01 
freq.    1245.03  E(vib)   ...       0.01 
freq.    1260.55  E(vib)   ...       0.01 
freq.    1287.76  E(vib)   ...       0.01 
freq.    1304.59  E(vib)   ...       0.01 
freq.    1327.50  E(vib)   ...       0.01 
freq.    1342.84  E(vib)   ...       0.01 
freq.    1384.22  E(vib)   ...       0.00 
freq.    1395.64  E(vib)   ...       0.00 
freq.    1395.82  E(vib)   ...       0.00 
freq.    1403.80  E(vib)   ...       0.00 
freq.    1414.95  E(vib)   ...       0.00 
freq.    1427.76  E(vib)   ...       0.00 
freq.    1450.31  E(vib)   ...       0.00 
freq.    1454.46  E(vib)   ...       0.00 
freq.    1476.48  E(vib)   ...       0.00 
freq.    1485.75  E(vib)   ...       0.00 
freq.    1496.22  E(vib)   ...       0.00 
freq.    1503.48  E(vib)   ...       0.00 
freq.    1511.96  E(vib)   ...       0.00 
freq.    1525.80  E(vib)   ...       0.00 
freq.    1543.82  E(vib)   ...       0.00 
freq.    1706.26  E(vib)   ...       0.00 
freq.    1771.57  E(vib)   ...       0.00 
freq.    2963.78  E(vib)   ...       0.00 
freq.    2980.02  E(vib)   ...       0.00 
freq.    2998.45  E(vib)   ...       0.00 
freq.    3004.39  E(vib)   ...       0.00 
freq.    3013.17  E(vib)   ...       0.00 
freq.    3023.90  E(vib)   ...       0.00 
freq.    3044.19  E(vib)   ...       0.00 
freq.    3061.86  E(vib)   ...       0.00 
freq.    3063.87  E(vib)   ...       0.00 
freq.    3075.59  E(vib)   ...       0.00 
freq.    3090.14  E(vib)   ...       0.00 
freq.    3102.70  E(vib)   ...       0.00 
freq.    3105.65  E(vib)   ...       0.00 
freq.    3575.24  E(vib)   ...       0.00 
freq.    3620.55  E(vib)   ...       0.00 
freq.    3664.23  E(vib)   ...       0.00 
freq.    3750.90  E(vib)   ...       0.00 

------------
INNER ENERGY
------------

The inner energy is: U= E(el) + E(ZPE) + E(vib) + E(rot) + E(trans)
    E(el)   - is the total energy from the electronic structure calculation
              = E(kin-el) + E(nuc-el) + E(el-el) + E(nuc-nuc)
    E(ZPE)  - the the zero temperature vibrational energy from the frequency calculation
    E(vib)  - the the finite temperature correction to E(ZPE) due to population
              of excited vibrational states
    E(rot)  - is the rotational thermal energy
    E(trans)- is the translational thermal energy

Summary of contributions to the inner energy U:
Electronic energy                ...   -783.76666328 Eh
Zero point energy                ...      0.26690443 Eh     167.48 kcal/mol
Thermal vibrational correction   ...      0.01433065 Eh       8.99 kcal/mol
Thermal rotational correction    ...      0.00141627 Eh       0.89 kcal/mol
Thermal translational correction ...      0.00141627 Eh       0.89 kcal/mol
-----------------------------------------------------------------------
Total thermal energy                   -783.48259566 Eh


Summary of corrections to the electronic energy:
(perhaps to be used in another calculation)
Total thermal correction                  0.01716319 Eh      10.77 kcal/mol
Non-thermal (ZPE) correction              0.26690443 Eh     167.48 kcal/mol
-----------------------------------------------------------------------
Total correction                          0.28406762 Eh     178.25 kcal/mol


--------
ENTHALPY
--------

The enthalpy is H = U + kB*T
                kB is Boltzmann's constant
Total thermal energy              ...   -783.48259566 Eh 
Thermal Enthalpy correction       ...      0.00094421 Eh       0.59 kcal/mol
-----------------------------------------------------------------------
Total Enthalpy                    ...   -783.48165145 Eh


Note: Only C1 symmetry has been detected, increase convergence thresholds 
      if your molecule has a higher symmetry. Symmetry factor of 1.0 is   
      used for the rotational entropy correction. 
 

Note: Rotational entropy computed according to Herzberg 
Infrared and Raman Spectra, Chapter V,1, Van Nostrand Reinhold, 1945 
Point Group:  C1, Symmetry Number:   1  
Rotational constants in cm-1:     0.026759     0.013984     0.010718 

Vibrational entropy computed according to the QRRHO of S. Grimme
Chem.Eur.J. 2012 18 9955 using a reference frequency of 100.0 cm-1


-------
ENTROPY
-------

The entropy contributions are T*S = T*(S(el)+S(vib)+S(rot)+S(trans))
     S(el)   - electronic entropy
     S(vib)  - vibrational entropy
     S(rot)  - rotational entropy
     S(trans)- translational entropy
The entropies will be listed as multiplied by the temperature to get
units of energy

Electronic entropy                ...      0.00000000 Eh      0.00 kcal/mol
Vibrational entropy               ...      0.02547813 Eh     15.99 kcal/mol
Rotational entropy                ...      0.01537725 Eh      9.65 kcal/mol
Translational entropy             ...      0.01998299 Eh     12.54 kcal/mol
-----------------------------------------------------------------------
Final entropy term                ...      0.06083837 Eh     38.18 kcal/mol

In case the symmetry of your molecule has not been determined correctly
or in case you have a reason to use a different symmetry number we print 
out the resulting rotational entropy values for sn=1,12:

 non-linear molecules -----------------------------------
|  sn= 1 | S(rot)=       0.01537725 Eh      9.65 kcal/mol|
|  sn= 2 | S(rot)=       0.01472279 Eh      9.24 kcal/mol|
|  sn= 3 | S(rot)=       0.01433996 Eh      9.00 kcal/mol|
|  sn= 4 | S(rot)=       0.01406834 Eh      8.83 kcal/mol|
|  sn= 5 | S(rot)=       0.01385765 Eh      8.70 kcal/mol|
|  sn= 6 | S(rot)=       0.01368551 Eh      8.59 kcal/mol|
|  sn= 7 | S(rot)=       0.01353996 Eh      8.50 kcal/mol|
|  sn= 8 | S(rot)=       0.01341388 Eh      8.42 kcal/mol|
|  sn= 9 | S(rot)=       0.01330267 Eh      8.35 kcal/mol|
|  sn=10 | S(rot)=       0.01320319 Eh      8.29 kcal/mol|
|  sn=11 | S(rot)=       0.01311320 Eh      8.23 kcal/mol|
|  sn=12 | S(rot)=       0.01303105 Eh      8.18 kcal/mol|
 linear molecules ---------------------------------------
|  Dinfh | S(rot)=       0.00960845 Eh      6.03 kcal/mol|
|  Cinfv | S(rot)=       0.01026290 Eh      6.44 kcal/mol|
 --------------------------------------------------------


-------------------
GIBBS FREE ENERGY
-------------------

The Gibbs free energy is G = H - T*S

Total enthalpy                    ...   -783.48165145 Eh 
Total entropy correction          ...     -0.06083837 Eh    -38.18 kcal/mol
-----------------------------------------------------------------------
Final Gibbs free energy         ...   -783.54248982 Eh

For completeness - the Gibbs free energy minus the electronic energy
G-E(el)                           ...      0.22417346 Eh    140.67 kcal/mol


Maximum memory used throughout the entire PROP-calculation: 96.7 MB

--------------------------------
SUGGESTED CITATIONS FOR THIS RUN
--------------------------------

Below you find a list of papers that are relevant to this ORCA run
We neither can nor want to force you to cite these papers, but we appreciate if you do
You receive ORCA, which is the product of decades of hard work by many enthusiastic individuals, for free
The only thing we kindly ask in return is that you cite our papers,
We deeply appreciate it, if you show your appreciation for ORCA by not just citing the generic ORCA reference.

Please note that relegating all ORCA citations to the supporting information does *not* help us.
SI sections are not indexed - citations you put there will not count into any citation statistics
But we need these citations in order to attract the funding resources that allow us to do what we are doing

Therefore, if you are a happy ORCA user, please consider citing a few of the papers listed below in the main body of your paper

In addition to the list printed below, the program has created the file m1_00_Vitamin_B5-B97-3C-TZ.bibtex that contains the list in bibtex format
You can import this file easily into all common literature databanks and citation aid programs


List of essential papers. We consider these as the minimum necessary citations

  1. Neese,F.
     Software update: the ORCA program system, version 5.0
     WIRES Comput. Molec. Sci., 2022 12(1)e1606
     doi.org/10.1002/wcms.1606

List of papers to cite with high priority. The work reported in these papers was absolutely
necessary for this run to complete.
Our perspective: the developers of density functionals and basis sets usually get cited in chemistry papers
Good! But without the algorithms to do something with them, the functionals or basis sets would not do anything.
Hence, in our opinion, the algorithm design and method developments papers are equally worthy of getting cited

  1. Neese,F.
     An improvement of the resolution of the identity approximation for the formation of the Coulomb matrix
     J. Comp. Chem., 2003 24(14)1740-1747
     doi.org/10.1002/jcc.10318
  2. Bykov,D.; Petrenko,T.; Izsak,R.; Kossmann,S.; Becker,U.; Valeev,E.; Neese,F.
     Efficient implementation of the analytic second derivatives of Hartree-Fock and hybrid DFT energies: a detailed analysis of different approximations
     Molec. Phys., 2015 113 1961-1977
     doi.org/10.1080/00268976.2015.1025114
  3. Neese,F.
     The SHARK Integral Generation and Digestion System
     J. Comp. Chem., 2022  1-16
     doi.org/10.1002/jcc.26942
  4. Grimme,S.; Antony,J.; Ehrlich,S.; Krieg,H.
     A consistent and accurate ab initio parametrization of density functional dispersion correction (DFT-D) for the 94 elements H-Pu
     J. Chem. Phys., 2010 132 154104
     doi.org/10.1063/1.3382344
  5. Grimme,S.; Ehrlich,S.; Goerigk,L.
     Effect of the damping function in dispersion corrected density functional theory
     J. Comput. Chem., 2011 32(7)1456-1465
     doi.org/10.1002/jcc.21759

List of suggested additional citations. These are papers that are important in the 'surrounding' of 
of this run, or papers that preceded the highly important papers. If you like your results we are grateful for a citation.

  1. Neese,F.
     The ORCA program system
     WIRES Comput. Molec. Sci., 2012 2(1)73-78
     doi.org/10.1002/wcms.81
  2. Neese,F.
     Software update: the ORCA program system, version 4.0
     WIRES Comput. Molec. Sci., 2018 8(1)1-6
     doi.org/10.1002/wcms.1327
  3. Neese,F.; Wennmohs,F.; Becker,U.; Riplinger,C.
     The ORCA quantum chemistry program package
     J. Chem. Phys., 2020 152 Art. No. L224108
     doi.org/10.1063/5.0004608

List of optional additional citations

  1. Neese,F.
     Approximate second-order SCF convergence for spin unrestricted wavefunctions
     Chem. Phys. Lett., 2000 325(1-3)93-98
     doi.org/10.1016/s0009-2614(00)00662-x

Timings for individual modules:

Sum of individual times          ...      397.871 sec (=   6.631 min)
Startup calculation              ...       58.836 sec (=   0.981 min)  14.8 %
SCF iterations                   ...      106.393 sec (=   1.773 min)  26.7 %
Property integrals               ...       76.045 sec (=   1.267 min)  19.1 %
SCF Response                     ...       60.446 sec (=   1.007 min)  15.2 %
Property calculations            ...       33.574 sec (=   0.560 min)   8.4 %
SCF Gradient evaluation          ...       61.314 sec (=   1.022 min)  15.4 %
Geometry relaxation              ...        1.263 sec (=   0.021 min)   0.3 %
                             ****ORCA TERMINATED NORMALLY****
TOTAL RUN TIME: 0 days 0 hours 6 minutes 49 seconds 426 msec
