
                                 *****************
                                 * O   R   C   A *
                                 *****************

                                            #,                                       
                                            ###                                      
                                            ####                                     
                                            #####                                    
                                            ######                                   
                                           ########,                                 
                                     ,,################,,,,,                         
                               ,,#################################,,                 
                          ,,##########################################,,             
                       ,#########################################, ''#####,          
                    ,#############################################,,   '####,        
                  ,##################################################,,,,####,       
                ,###########''''           ''''###############################       
              ,#####''   ,,,,##########,,,,          '''####'''          '####       
            ,##' ,,,,###########################,,,                        '##       
           ' ,,###''''                  '''############,,,                           
         ,,##''                                '''############,,,,        ,,,,,,###''
      ,#''                                            '''#######################'''  
     '                                                          ''''####''''         
             ,#######,   #######,   ,#######,      ##                                
            ,#'     '#,  ##    ##  ,#'     '#,    #''#        ,####,   ,####,        
            ##       ##  ##   ,#'  ##            #'  '#       #'       #'  '#        
            ##       ##  #######   ##           ,######,      #####,   #    #        
            '#,     ,#'  ##    ##  '#,     ,#' ,#      #,     #,   #   #,  ,#        
             '#######'   ##     ##  '#######'  #'      '#     '####' # '####'        



                #########################################################
                #                        -***-                          #
                #          Department of theory and spectroscopy        #
                #                                                       #
                #                      Frank Neese                      #
                #                                                       #
                #     Directorship, Architecture, Infrastructure        #
                #                    SHARK, DRIVERS                     #
                #        Core code/Algorithms in most modules           #
                #                                                       #
                #        Max Planck Institute fuer Kohlenforschung      #
                #                Kaiser Wilhelm Platz 1                 #
                #                 D-45470 Muelheim/Ruhr                 #
                #                      Germany                          #
                #                                                       #
                #                  All rights reserved                  #
                #                        -***-                          #
                #########################################################


                         Program Version 6.0.1  -  RELEASE   -


 With contributions from (in alphabetic order):
[Max-Planck-Institut fuer Kohlenforschung]                               
  Daniel Aravena         : Magnetic Suceptibility                        
  Michael Atanasov       : Ab Initio Ligand Field Theory (pilot matlab implementation)
  Alexander A. Auer      : GIAO ZORA, VPT2 properties, NMR spectrum      
  Ute Becker             : All parallelization in ORCA, NUMFREQ, NUMCALC 
  Giovanni Bistoni       : ED, misc. LED, open-shell LED, HFLD           
  Martin Brehm           : Molecular dynamics                            
  Dmytro Bykov           : pre 5.0 version of the SCF Hessian            
  Marcos Casanova-Páez   : Triplet and SCS-CIS(D). UHF-(DLPNO)-IP/EA/STEOM-CCSD. UHF-CVS-IP/STEOM-CCSD   
  Vijay G. Chilkuri      : MRCI spin determinant printing, contributions to CSF-ICE 
  Pauline Colinet        : FMM embedding                                 
  Dipayan Datta          : RHF DLPNO-CCSD density                        
  Achintya Kumar Dutta   : EOM-CC, STEOM-CC                              
  Nicolas Foglia         : Exact transition moments, OPA infrastructure, MCD improvements    
  Dmitry Ganyushin       : Spin-Orbit,Spin-Spin,Magnetic field MRCI      
  Miquel Garcia-Rates    : C-PCM and meta-GGA Hessian, CCSD/C-PCM, Gaussian charge scheme 
  Tiago L. C. Gouveia    : GS-ROHF, GS-ROCIS                             
  Yang Guo               : DLPNO-NEVPT2, F12-NEVPT2, CIM, IAO-localization        
  Andreas Hansen         : Spin unrestricted coupled pair/coupled cluster methods 
  Ingolf Harden          : AUTO-CI MPn and infrastructure                
  Benjamin Helmich-Paris : MC-RPA, TRAH-(SCF,CASSCF), AVAS, COSX integrals, SCF dyn. polar. 
  Lee Huntington         : MR-EOM, pCC                                   
  Robert Izsak           : Overlap fitted RIJCOSX, COSX-SCS-MP3, EOM     
  Riya Kayal             : Wick's Theorem for AUTO-CI, AUTO-CI UHF-CCSDT 
  Emily Kempfer          : AUTO-CI, RHF CISDT and CCSDT                  
  Christian Kollmar      : KDIIS, OOCD, Brueckner-CCSD(T), CCSD density, CASPT2, CASPT2-K, improved NEVPT2 
  Axel Koslowski         : Symmetry handling                             
  Simone Kossmann        : meta-GGA functionals, TD-DFT gradient, OOMP2, (MP2 Hessian; deprecated post 5.0) 
  Lucas Lang             : DCDCAS                                        
  Marvin Lechner         : AUTO-CI (C++ implementation), FIC-MRCC        
  Spencer Leger          : CASSCF response                               
  Dagmar Lenk            : GEPOL surface, SMD, ORCA-2-JSON               
  Dimitrios Liakos       : Extrapolation schemes; Compound Job, initial MDCI parallelization 
  Dimitrios Manganas     : Further ROCIS development; embedding schemes. LFT, Crystal Embedding 
  Dimitrios Pantazis     : SARC Basis sets                               
  Anastasios Papadopoulos: AUTO-CI, single reference methods and gradients 
  Taras Petrenko         : pre 6.0 DFT Hessian and TD-DFT gradient, (ASA, deprecated), ECA, 1-Electron XAS/XES, NRVS 
  Peter Pinski           : DLPNO-MP2, DLPNO-MP2 Gradient                 
  Christoph Reimann      : Effective Core Potentials                     
  Marius Retegan         : Local ZFS, SOC                                
  Christoph Riplinger    : Optimizer, TS searches, QM/MM, DLPNO-CCSD(T), (RO)-DLPNO pert. Triples 
  Michael Roemelt        : Original ROCIS implementation                 
  Masaaki Saitow         : Open-shell DLPNO-CCSD energy and density      
  Barbara Sandhoefer     : DKH picture change effects                    
  Kantharuban Sivalingam : CASSCF convergence/infrastructure, NEVPT2 and variants, FIC-MRCI 
  Bernardo de Souza      : ESD, SOC TD-DFT                               
  Georgi L. Stoychev     : AutoAux, RI-MP2 NMR, DLPNO-MP2 response, X2C  
  Van Anh Tran           : RI-MP2 g-tensors                              
  Willem Van den Heuvel  : Paramagnetic NMR                              
  Zikuan Wang            : NOTCH, Electric field optimization            
  Frank Wennmohs         : Technical directorship and infrastructure     
  Hang Xu                : AUTO-CI-Response properties                   
                                                                         
[FACCTs GmbH]                                                            
  Markus Bursch, Miquel Garcia-Rates, Christoph Riplinger, Bernardo de Souza, Georgi L. Stoychev 
                                                                 
  APM, Basis sets (HGBS, AHGBS, def-TZVP (Ac-Lr), def2-XVPD (La-Lu)), CI-OPT, improved COSX, DLPNO-Multilevel,           
  DOCKER, DRACO, updates on ESD, GOAT, IRC, LR-CPCM, MBIS, meta-GGA TD-DFT gradient, ML-optimized integration grids, 
  MM, NACMEs, nearIR, NEB, NEB-TS, NL-DFT gradient (VV10), 2- and 3-layer-ONIOM, interface openCOSMO-RS, QMMM,   
  Crystal-QMMM, SF, symmetry and pop. for TD-DFT, r2SCAN hybrids, SOLVATOR                                   
                                                                         
[Other institutions]                                                     
  V. Asgeirsson          : NEB                                           
  Christoph Bannwarth    : sTDA-DFT, sTD-DFT, PBEh-3c, B97-3c, D3        
  Sebastian Ehlert       : rSCAN, r2SCAN, r2SCAN-3c, D4, dhf basis sets  
  Marvin Friede          : D4 for Fr, Ra, Ac-Lr                          
  Lars Goerigk           : TD-DFT with DH, B97 family of functionals     
  Stefan Grimme          : VdW corrections, initial TS optimization, DFT functionals, gCP, sTDA/sTD-DF 
  Waldemar Hujo          : DFT-NL                                        
  H. Jonsson             : NEB                                           
  Holger Kruse           : gCP                                           
  Marcel Mueller         : wB97X-3c, vDZP basis set                      
  Hagen Neugebauer       : wr2SCAN                                       
  Tobias Risthaus        : range-separated hybrid DFT                    
  Lukas Wittmann         : regularized MP2, r2SCAN double-hybrids, wr2SCAN        
                                                                         
We gratefully acknowledge several colleagues who have allowed us to      
interface, adapt or use parts of their codes:                            
  Ed Valeev, F. Pavosevic, A. Kumar             : LibInt (2-el integral package), F12 methods 
  Garnet Chan, S. Sharma, J. Yang, R. Olivares  : DMRG                   
  Ulf Ekstrom                                   : XCFun DFT Library      
  Mihaly Kallay                                 : mrcc  (arbitrary order and MRCC methods)
  Frank Weinhold                                : gennbo (NPA and NBO analysis)           
  Simon Mueller                                 : openCOSMO-RS                            
  Christopher J. Cramer and Donald G. Truhlar   : smd solvation model                     
  S Lehtola, MJT Oliveira, MAL Marques          : LibXC Library                           
  Liviu Ungur et al                             : ANISO software                          


 Your calculation uses the libint2 library for the computation of 2-el integrals
 For citations please refer to: http://libint.valeyev.net

 Your ORCA version has been built with support for libXC version: 6.2.2
 For citations please refer to: https://libxc.gitlab.io

 This ORCA versions uses:
   CBLAS   interface :  Fast vector & matrix operations
   LAPACKE interface :  Fast linear algebra routines
   SCALAPACK package :  Parallel linear algebra routines
   Shared memory     :  Shared parallel matrices
   BLAS/LAPACK       :  OpenBLAS 0.3.27  USE64BITINT DYNAMIC_ARCH NO_AFFINITY Zen SINGLE_THREADED
        Core in use  :  Zen
   Copyright (c) 2011-2014, The OpenBLAS Project


NOTE: MaxCore=6000 MB was set to SCF,MP2,MDCI,CIPSI,MRCI and CIS
      => If you want to overwrite this, your respective input block should be placed after the MaxCore statement
Your calculation utilizes the atom-pairwise dispersion correction
with the Becke-Johnson damping scheme (D3BJ)


Your calculation employs the composite approach B97-3c by Grimme and coworkers.
For the correct reference, please check the publication list of the Grimme group:
http://www.thch.uni-bonn.de/tc/index.php?section=publikationen&subsection=grimme#2017
   

XCFun DFT library Copyright 2009-2010 Ulf Ekstrom and contributors.
See http://admol.org/xcfun for more information.
This is free software; see the source code for copying conditions.
There is ABSOLUTELY NO WARRANTY; not even for MERCHANTABILITY or FITNESS FOR A PARTICULAR PURPOSE.
For details see the documentation.
Scientific users of this library should cite U. Ekstrom, L. Visscher, R. Bast, A. J. Thorvaldsen and K. Ruud;
J.Chem.Theor.Comp. 2010, DOI: 10.1021/ct100117s
XCFun Version 0.99 

================================================================================

----- Orbital basis set information -----
Your calculation utilizes the basis: def2-mTZVP
----- AuxJ basis set information -----
Your calculation utilizes the basis: def2-mTZVP/J
================================================================================
                                        WARNINGS
                       Please study these warnings very carefully!
================================================================================


WARNING: Geometry Optimization
  ===> : Switching off AutoStart
         For restart on a previous wavefunction, please use MOREAD

================================================================================
                                       INPUT FILE
================================================================================
NAME = m1_00_Vitamin_C-B97-3C-TZ.inp
|  1> %pal nprocs 16 end
|  2> %MaxCore 6000
|  3> # put your comments here
|  4> ! B97-3C  OPT  FREQ DEFGRID3 NOTRAH CHELPG
|  5> %scf MaxIter 800 end
|  6> %output
|  7> Print [P_Hirshfeld] 1
|  8> end
|  9> %geom
| 10> MaxIter 3000
| 11>  TolE 1e-6 #TolE 5e-6 Energy change (a.u.)
| 12>  TolRMSG 3e-5 #TolRMSG 1e-4 RMS gradient (a.u.)
| 13>  TolMaxG 1e-4 #TolMaxG 3e-3 Max. element of gradient (a.u.)
| 14>  TolRMSD 2e-3 #TolRMSD 2e-3 RMS displacement (a.u.)
| 15>  TolMaxD 4e-3 #TolMaxD 4e-3 Max. displacement (a.u.)
| 16> end
| 17> * xyz 0 1
| 18>  O      0.093200000     -1.106600000      0.644500000
| 19>  O     -1.343600000      0.089200000     -1.386300000
| 20>  O      0.839200000      2.390100000      0.284400000
| 21>  O     -3.892900000     -0.204000000     -0.332600000
| 22>  O      3.022000000      0.569500000     -0.605600000
| 23>  O      1.991500000     -2.156000000     -0.137600000
| 24>  C     -0.339700000      0.261800000      0.785300000
| 25>  C     -1.605900000      0.458500000     -0.033000000
| 26>  C      0.821200000      1.026500000      0.288700000
| 27>  C     -2.746400000     -0.408200000      0.486300000
| 28>  C      1.807700000      0.227300000     -0.104900000
| 29>  C      1.353600000     -1.148100000      0.110800000
| 30>  H     -0.515400000      0.460900000      1.848400000
| 31>  H     -1.916200000      1.509200000     -0.043200000
| 32>  H     -2.498900000     -1.473500000      0.435100000
| 33>  H     -3.001300000     -0.146200000      1.517900000
| 34>  H     -1.099900000     -0.852200000     -1.398600000
| 35>  H      0.003900000      2.695700000      0.678000000
| 36>  H     -4.602300000     -0.764400000      0.025700000
| 37>  H      3.502400000     -0.257200000     -0.785600000
| 38> *
| 39> 
| 40> 
| 41> 
| 42> 
| 43>                          ****END OF INPUT****
================================================================================

                       *****************************
                       * Geometry Optimization Run *
                       *****************************

Geometry optimization settings:
Update method            Update   .... BFGS
Choice of coordinates    CoordSys .... (2022) Redundant Internals
Initial Hessian          InHess   .... Almloef's Model
Max. no of cycles        MaxIter  .... 3000

Convergence Tolerances:
Energy Change            TolE     ....  1.0000e-06 Eh
Max. Gradient            TolMAXG  ....  1.0000e-04 Eh/bohr
RMS Gradient             TolRMSG  ....  3.0000e-05 Eh/bohr
Max. Displacement        TolMAXD  ....  4.0000e-03 bohr
RMS Displacement         TolRMSD  ....  2.0000e-03 bohr
Strict Convergence                .... False

------------------------------------------------------------------------------
                        ORCA OPTIMIZATION COORDINATE SETUP
------------------------------------------------------------------------------

The optimization will be done in redundant internal coordinates (2022)
Making redundant internal coordinates   ...  (2022 redundants) done
Evaluating the initial hessian          ...  (Almloef) done
Evaluating the coordinates              ...  done
Calculating the B-matrix                .... done
Calculating the G-matrix                .... done
Diagonalizing the G-matrix              .... done
Small eigenvalue found = 2.360e-02
The first mode is                       ....   39
The number of degrees of freedom        ....   54

    -----------------------------------------------------------------
                    Redundant Internal Coordinates


    -----------------------------------------------------------------
         Definition                    Initial Value    Approx d2E/dq
    -----------------------------------------------------------------
      1. B(C   6,O   0)                  1.4421         0.462064   
      2. B(C   7,O   1)                  1.4271         0.488304   
      3. B(C   7,C   6)                  1.5204         0.387007   
      4. B(C   8,O   2)                  1.3637         0.616303   
      5. B(C   8,C   6)                  1.4762         0.455267   
      6. B(C   9,C   7)                  1.5237         0.382358   
      7. B(C   9,O   3)                  1.4236         0.494540   
      8. B(C  10,C   8)                  1.3292         0.781107   
      9. B(C  10,O   4)                  1.3573         0.630971   
     10. B(C  11,C  10)                  1.4644         0.475382   
     11. B(C  11,O   5)                  1.2184         1.051147   
     12. B(C  11,O   0)                  1.3694         0.603662   
     13. B(H  12,C   6)                  1.0958         0.352559   
     14. B(H  13,C   7)                  1.0956         0.352755   
     15. B(H  14,C   9)                  1.0949         0.353714   
     16. B(H  15,C   9)                  1.0944         0.354264   
     17. B(H  16,O   0)                  2.3796         0.002826   
     18. B(H  16,O   1)                  0.9725         0.496602   
     19. B(H  17,O   2)                  0.9726         0.496355   
     20. B(H  18,O   3)                  0.9725         0.496695   
     21. B(H  19,O   4)                  0.9729         0.495813   
     22. A(C   6,O   0,C  11)          110.0660         0.404645   
     23. A(C   7,O   1,H  16)          107.9719         0.352571   
     24. A(C   8,O   2,H  17)          107.5510         0.366800   
     25. A(C   9,O   3,H  18)          107.0308         0.353340   
     26. A(C  10,O   4,H  19)          107.2031         0.368213   
     27. A(O   0,C   6,C   8)          102.8635         0.387576   
     28. A(C   7,C   6,C   8)          114.0082         0.378214   
     29. A(O   0,C   6,H  12)          108.3769         0.332716   
     30. A(C   8,C   6,H  12)          110.9994         0.333915   
     31. A(O   0,C   6,C   7)          108.6755         0.376798   
     32. A(C   7,C   6,H  12)          111.4156         0.325074   
     33. A(C   6,C   7,C   9)          111.4908         0.367012   
     34. A(C   9,C   7,H  13)          109.6749         0.324459   
     35. A(C   6,C   7,H  13)          111.4047         0.325104   
     36. A(O   1,C   7,H  13)          106.9416         0.335813   
     37. A(O   1,C   7,C   6)          108.8951         0.380419   
     38. A(O   1,C   7,C   9)          108.2749         0.379623   
     39. A(O   2,C   8,C   6)          121.9666         0.407690   
     40. A(C   6,C   8,C  10)          111.8271         0.428040   
     41. A(O   2,C   8,C  10)          126.1904         0.449107   
     42. A(H  14,C   9,H  15)          109.2476         0.289282   
     43. A(O   3,C   9,H  15)          108.6801         0.336762   
     44. A(C   7,C   9,H  14)          111.6118         0.324604   
     45. A(O   3,C   9,H  14)          107.1401         0.336675   
     46. A(O   3,C   9,C   7)          108.9759         0.380458   
     47. A(C   7,C   9,H  15)          111.0641         0.324687   
     48. A(C   8,C  10,C  11)          106.9153         0.431374   
     49. A(O   4,C  10,C  11)          124.6489         0.412542   
     50. A(O   4,C  10,C   8)          128.4338         0.451029   
     51. A(O   0,C  11,O   5)          125.9038         0.469183   
     52. A(O   5,C  11,C  10)          125.7734         0.452161   
     53. A(O   0,C  11,C  10)          108.3223         0.409318   
     54. D(C   7,C   6,O   0,C  11)    120.4407         0.018228   
     55. D(C   8,C   6,O   0,C  11)     -0.7390         0.018228   
     56. D(H  12,C   6,O   0,C  11)   -118.3327         0.018228   
     57. D(C   9,C   7,C   6,H  12)    -56.2626         0.011916   
     58. D(O   1,C   7,C   6,C   8)     57.7436         0.011916   
     59. D(C   9,C   7,C   6,C   8)    177.1476         0.011916   
     60. D(C   9,C   7,O   1,H  16)    -59.7151         0.018825   
     61. D(H  13,C   7,O   1,H  16)   -177.8303         0.018825   
     62. D(C   6,C   7,O   1,H  16)     61.6719         0.018825   
     63. D(O   1,C   7,C   6,O   0)    -56.3236         0.011916   
     64. D(O   1,C   7,C   6,H  12)   -175.6666         0.011916   
     65. D(C   9,C   7,C   6,O   0)     63.0805         0.011916   
     66. D(O   2,C   8,C   6,O   0)   -178.1820         0.015282   
     67. D(C  10,C   8,O   2,H  17)   -176.4894         0.027843   
     68. D(C   6,C   8,O   2,H  17)      1.9379         0.027843   
     69. D(C  10,C   8,C   6,C   7)   -117.0182         0.015282   
     70. D(C  10,C   8,C   6,O   0)      0.4508         0.015282   
     71. D(O   2,C   8,C   6,H  12)    -62.4575         0.015282   
     72. D(O   2,C   8,C   6,C   7)     64.3490         0.015282   
     73. D(H  14,C   9,C   7,H  13)    175.4718         0.011645   
     74. D(H  14,C   9,C   7,O   1)     59.1138         0.011645   
     75. D(O   3,C   9,C   7,H  13)     57.3443         0.011645   
     76. D(O   3,C   9,C   7,C   6)   -178.7851         0.011645   
     77. D(O   3,C   9,C   7,O   1)    -59.0137         0.011645   
     78. D(H  15,C   9,O   3,H  18)    -58.5167         0.019322   
     79. D(H  14,C   9,C   7,C   6)    -60.6576         0.011645   
     80. D(H  14,C   9,O   3,H  18)     59.4155         0.019322   
     81. D(C   7,C   9,O   3,H  18)   -179.6785         0.019322   
     82. D(O   4,C  10,C   8,O   2)     -0.9507         0.043867   
     83. D(C  11,C  10,O   4,H  19)      0.2205         0.029286   
     84. D(C   8,C  10,O   4,H  19)    179.6392         0.029286   
     85. D(C  11,C  10,C   8,C   6)     -0.0135         0.043867   
     86. D(C  11,C  10,C   8,O   2)    178.5493         0.043867   
     87. D(O   4,C  10,C   8,C   6)   -179.5136         0.043867   
     88. D(O   5,C  11,C  10,C   8)    179.8067         0.015387   
     89. D(O   5,C  11,C  10,O   4)     -0.6693         0.015387   
     90. D(O   0,C  11,C  10,C   8)     -0.4648         0.015387   
     91. D(O   0,C  11,C  10,O   4)    179.0592         0.015387   
     92. D(C  10,C  11,O   0,C   6)      0.7670         0.029389   
     93. D(O   5,C  11,O   0,C   6)   -179.5049         0.029389   
    -----------------------------------------------------------------

Number of atoms                         .... 20
Number of degrees of freedom            .... 93


         *************************************************************
         *                GEOMETRY OPTIMIZATION CYCLE   1            *
         *************************************************************
---------------------------------
CARTESIAN COORDINATES (ANGSTROEM)
---------------------------------
  O      0.093200   -1.106600    0.644500
  O     -1.343600    0.089200   -1.386300
  O      0.839200    2.390100    0.284400
  O     -3.892900   -0.204000   -0.332600
  O      3.022000    0.569500   -0.605600
  O      1.991500   -2.156000   -0.137600
  C     -0.339700    0.261800    0.785300
  C     -1.605900    0.458500   -0.033000
  C      0.821200    1.026500    0.288700
  C     -2.746400   -0.408200    0.486300
  C      1.807700    0.227300   -0.104900
  C      1.353600   -1.148100    0.110800
  H     -0.515400    0.460900    1.848400
  H     -1.916200    1.509200   -0.043200
  H     -2.498900   -1.473500    0.435100
  H     -3.001300   -0.146200    1.517900
  H     -1.099900   -0.852200   -1.398600
  H      0.003900    2.695700    0.678000
  H     -4.602300   -0.764400    0.025700
  H      3.502400   -0.257200   -0.785600

----------------------------
CARTESIAN COORDINATES (A.U.)
----------------------------
  NO LB      ZA    FRAG     MASS         X           Y           Z
   0 O     8.0000    0    15.999    0.176122   -2.091171    1.217928
   1 O     8.0000    0    15.999   -2.539036    0.168564   -2.619727
   2 O     8.0000    0    15.999    1.585858    4.516634    0.537438
   3 O     8.0000    0    15.999   -7.356515   -0.385504   -0.628523
   4 O     8.0000    0    15.999    5.710752    1.076199   -1.144418
   5 O     8.0000    0    15.999    3.763390   -4.074250   -0.260026
   6 C     6.0000    0    12.011   -0.641940    0.494730    1.484002
   7 C     6.0000    0    12.011   -3.034711    0.866439   -0.062361
   8 C     6.0000    0    12.011    1.551843    1.939804    0.545564
   9 C     6.0000    0    12.011   -5.189944   -0.771386    0.918974
  10 C     6.0000    0    12.011    3.416058    0.429535   -0.198232
  11 C     6.0000    0    12.011    2.557933   -2.169595    0.209382
  12 H     1.0000    0     1.008   -0.973965    0.870975    3.492970
  13 H     1.0000    0     1.008   -3.621093    2.851975   -0.081636
  14 H     1.0000    0     1.008   -4.722237   -2.784511    0.822220
  15 H     1.0000    0     1.008   -5.671635   -0.276278    2.868415
  16 H     1.0000    0     1.008   -2.078510   -1.610425   -2.642971
  17 H     1.0000    0     1.008    0.007370    5.094135    1.281234
  18 H     1.0000    0     1.008   -8.697087   -1.444507    0.048566
  19 H     1.0000    0     1.008    6.618577   -0.486038   -1.484569

--------------------------------
INTERNAL COORDINATES (ANGSTROEM)
--------------------------------
 O      0   0   0     0.000000000000     0.00000000     0.00000000
 O      1   0   0     2.760159509883     0.00000000     0.00000000
 O      2   1   0     3.584688987904    67.55452892     0.00000000
 O      2   1   3     2.774018821133    98.80757076   244.58761673
 O      3   2   1     2.978472796586    85.10356623    60.09994242
 O      1   2   3     2.305745792580   112.09693905   263.79760855
 C      1   2   3     1.442132313625    60.29658584    34.58205601
 C      2   1   3     1.427096587481    60.66470625   292.55811489
 C      3   2   1     1.363725577233    49.58062497    16.05543679
 C      4   2   1     1.423642195216    59.57321166    13.93594576
 C      9   3   2     1.329219263327   126.19038337   120.39042379
 C      6   1   2     1.218392949750    28.75436195    70.17902563
 H      7   1   2     1.095761338066   108.37686375   149.17406301
 H      8   2   1     1.095609702403   106.94162706   148.69418640
 H     10   4   2     1.094870668161   107.14013506   268.15090392
 H     10   4   2     1.094448066379   108.68005062   150.21872593
 H      2   1   3     0.972509609207    57.28127199   151.13864653
 H      3   2   1     0.972645058590    82.37643817   255.15031516
 H      4   2   1     0.972458436130   150.60525063   304.45536413
 H      5   3   2     0.972942470036   159.47410345   315.93266332

---------------------------
INTERNAL COORDINATES (A.U.)
---------------------------
 O      0   0   0     0.000000000000     0.00000000     0.00000000
 O      1   0   0     5.215945559618     0.00000000     0.00000000
 O      2   1   0     6.774080462422    67.55452892     0.00000000
 O      2   1   3     5.242135862284    98.80757076   244.58761673
 O      3   2   1     5.628497882881    85.10356623    60.09994242
 O      1   2   3     4.357228082417   112.09693905   263.79760855
 C      1   2   3     2.725235121629    60.29658584    34.58205601
 C      2   1   3     2.696821716993    60.66470625   292.55811489
 C      3   2   1     2.577067862794    49.58062497    16.05543679
 C      4   2   1     2.690293861653    59.57321166    13.93594576
 C      9   3   2     2.511860379621   126.19038337   120.39042379
 C      6   1   2     2.302428998528    28.75436195    70.17902563
 H      7   1   2     2.070688837084   108.37686375   149.17406301
 H      8   2   1     2.070402287209   106.94162706   148.69418640
 H     10   4   2     2.069005714888   107.14013506   268.15090392
 H     10   4   2     2.068207113255   108.68005062   150.21872593
 H      2   1   3     1.837776824008    57.28127199   151.13864653
 H      3   2   1     1.838032786247    82.37643817   255.15031516
 H      4   2   1     1.837680120907   150.60525063   304.45536413
 H      5   3   2     1.838594812429   159.47410345   315.93266332

---------------------
BASIS SET INFORMATION
---------------------
There are 3 groups of distinct atoms

 Group   1 Type O   : 11s6p2d contracted to 5s3p2d pattern {62111/411/11}
 Group   2 Type C   : 11s6p1d contracted to 5s3p1d pattern {62111/411/1}
 Group   3 Type H   : 5s contracted to 3s pattern {311}

Atom   0O    basis set group =>   1
Atom   1O    basis set group =>   1
Atom   2O    basis set group =>   1
Atom   3O    basis set group =>   1
Atom   4O    basis set group =>   1
Atom   5O    basis set group =>   1
Atom   6C    basis set group =>   2
Atom   7C    basis set group =>   2
Atom   8C    basis set group =>   2
Atom   9C    basis set group =>   2
Atom  10C    basis set group =>   2
Atom  11C    basis set group =>   2
Atom  12H    basis set group =>   3
Atom  13H    basis set group =>   3
Atom  14H    basis set group =>   3
Atom  15H    basis set group =>   3
Atom  16H    basis set group =>   3
Atom  17H    basis set group =>   3
Atom  18H    basis set group =>   3
Atom  19H    basis set group =>   3
---------------------------------
AUXILIARY/J BASIS SET INFORMATION
---------------------------------
There are 3 groups of distinct atoms

 Group   1 Type O   : 8s3p3d contracted to 6s3p3d pattern {311111/111/111}
 Group   2 Type C   : 8s3p3d contracted to 6s3p3d pattern {311111/111/111}
 Group   3 Type H   : 5s2p contracted to 3s1p pattern {311/2}

Atom   0O    basis set group =>   1
Atom   1O    basis set group =>   1
Atom   2O    basis set group =>   1
Atom   3O    basis set group =>   1
Atom   4O    basis set group =>   1
Atom   5O    basis set group =>   1
Atom   6C    basis set group =>   2
Atom   7C    basis set group =>   2
Atom   8C    basis set group =>   2
Atom   9C    basis set group =>   2
Atom  10C    basis set group =>   2
Atom  11C    basis set group =>   2
Atom  12H    basis set group =>   3
Atom  13H    basis set group =>   3
Atom  14H    basis set group =>   3
Atom  15H    basis set group =>   3
Atom  16H    basis set group =>   3
Atom  17H    basis set group =>   3
Atom  18H    basis set group =>   3
Atom  19H    basis set group =>   3


           ************************************************************
           *        Program running with 16 parallel MPI-processes    *
           *              working on a common directory               *
           ************************************************************
------------------------------------------------------------------------------
                             ORCA STARTUP CALCULATIONS
                           -- RI-GTO INTEGRALS CHOSEN --
------------------------------------------------------------------------------
------------------------------------------------------------------------------
                   ___                                                        
                  /   \      - P O W E R E D   B Y -                         
                 /     \                                                     
                 |  |  |   _    _      __       _____    __    __             
                 |  |  |  | |  | |    /  \     |  _  \  |  |  /  |          
                  \  \/   | |  | |   /    \    | | | |  |  | /  /          
                 / \  \   | |__| |  /  /\  \   | |_| |  |  |/  /          
                |  |  |   |  __  | /  /__\  \  |    /   |      \           
                |  |  |   | |  | | |   __   |  |    \   |  |\   \          
                \     /   | |  | | |  |  |  |  | |\  \  |  | \   \       
                 \___/    |_|  |_| |__|  |__|  |_| \__\ |__|  \__/        
                                                                              
                      - O R C A' S   B I G   F R I E N D -                    
                                      &                                       
                       - I N T E G R A L  F E E D E R -                       
                                                                              
 v1 FN, 2020, v2 2021, v3 2022-2024                                           
------------------------------------------------------------------------------


----------------------
SHARK INTEGRAL PACKAGE
----------------------

Number of atoms                             ...     20
Number of basis functions                   ...    282
Number of shells                            ...    138
Maximum angular momentum                    ...      2
Integral batch strategy                     ... SHARK/LIBINT Hybrid
RI-J (if used) integral strategy            ... SPLIT-RIJ (Revised 2003 algorithm where possible)
Printlevel                                  ...      1
Contraction scheme used                     ... SEGMENTED contraction
Prescreening option                         ... SCHWARTZ
   Thresh                                   ... 2.500e-11
   Tcut                                     ... 2.500e-12
   Tpresel                                  ... 2.500e-12 
Coulomb Range Separation                    ... NOT USED
Exchange Range Separation                   ... NOT USED
Multipole approximations                    ... NOT USED
Finite Nucleus Model                        ... NOT USED
CABS basis                                  ... NOT available
Auxiliary Coulomb fitting basis             ... AVAILABLE
   # of basis functions in Aux-J            ...    408
   # of shells in Aux-J                     ...    176
   Maximum angular momentum in Aux-J        ...      2
Auxiliary J/K fitting basis                 ... NOT available
Auxiliary Correlation fitting basis         ... NOT available
Auxiliary 'external' fitting basis          ... NOT available

Checking pre-screening integrals            ... done (  0.0 sec) Dimension = 138
Check shell pair data                       ... done (  0.0 sec)
Shell pair information
Shell pair cut-off parameter TPreSel        ...   2.5e-12
Total number of shell pairs                 ...      9591
Shell pairs after pre-screening             ...      8286
Total number of primitive shell pairs       ...     34741
Primitive shell pairs kept                  ...     20557
          la=0 lb=0:   2875 shell pairs
          la=1 lb=0:   2679 shell pairs
          la=1 lb=1:    633 shell pairs
          la=2 lb=0:   1327 shell pairs
          la=2 lb=1:    610 shell pairs
          la=2 lb=2:    162 shell pairs

Calculating one electron integrals          ... done (  0.3 sec)
Calculating RI/J V-Matrix + Cholesky decomp.... done (  0.3 sec)
Calculating Nuclear repulsion               ... done (  0.0 sec) ENN=    761.401910553513 Eh

Diagonalization of the overlap matrix:
Smallest eigenvalue                        ... 2.566e-05
Time for diagonalization                   ...    0.258 sec
Threshold for overlap eigenvalues          ... 1.000e-07
Number of eigenvalues below threshold      ... 0
Time for construction of square roots      ...    0.003 sec
Total time needed                          ...    0.262 sec

-------------------
DFT GRID GENERATION
-------------------

General Integration Accuracy     IntAcc      ... 4.959
Radial Grid Type                 RadialGrid  ... OptM3 with GC (2021)
Angular Grid (max. ang.)         AngularGrid ... 6 (Lebedev-590)
Angular grid pruning method      GridPruning ... 4 (adaptive)
Weight generation scheme         WeightScheme... mBecke (2022)
Basis function cutoff            BFCut       ... 1.0000e-11
Integration weight cutoff        WCut        ... 1.0000e-14
Partially contracted basis set               ... off
Rotationally invariant grid construction     ... off
Angular grids for H and He will be reduced by one unit
Diffuse basis detected: some atoms will have their outermost
                        angular grid increased by 1.

Total number of grid points                  ...   244177
Total number of batches                      ...     3824
Average number of points per batch           ...       63
Average number of grid points per atom       ...    12209
Initializing property integral containers    ... done (  0.1 sec)

SHARK setup successfully completed in   4.7 seconds

Maximum memory used throughout the entire STARTUP-calculation: 54.5 MB


           ************************************************************
           *        Program running with 16 parallel MPI-processes    *
           *              working on a common directory               *
           ************************************************************
-------------------------------------------------------------------------------
                                 ORCA GUESS
                   Start orbitals & Density for SCF / CASSCF
-------------------------------------------------------------------------------

------------
SCF SETTINGS
------------
Hamiltonian:
 Density Functional     Method          .... DFT(GTOs)
 Exchange Functional    Exchange        .... B973C
 Correlation Functional Correlation     .... B973C
 Gradients option       PostSCFGGA      .... off
 RI-approximation to the Coulomb term is turned on
   Number of AuxJ basis functions       .... 408


General Settings:
 Integral files         IntName         .... m1_00_Vitamin_C-B97-3C-TZ
 Hartree-Fock type      HFTyp           .... RHF
 Total Charge           Charge          ....    0
 Multiplicity           Mult            ....    1
 Number of Electrons    NEL             ....   92
 Basis Dimension        Dim             ....  282
 Nuclear Repulsion      ENuc            ....    761.4019105535 Eh

Convergence Acceleration:
 AO-DIIS                CNVDIIS         .... on
   Start iteration      DIISMaxIt       ....    12
   Startup error        DIISStart       ....  0.200000
   # of expansion vecs  DIISMaxEq       ....     5
   Bias factor          DIISBfac        ....   1.050
   Max. coefficient     DIISMaxC        ....  10.000
 MO-DIIS                CNVKDIIS        .... off
 Trust-Rad. Augm. Hess. CNVTRAH         .... off
 SOSCF                  CNVSOSCF        .... on
   Start iteration      SOSCFMaxIt      ....   150
   Startup grad/error   SOSCFStart      ....  0.003300
   Hessian update       SOSCFHessUp     .... L-BFGS
 Level Shifting         CNVShift        .... on
   Level shift para.    LevelShift      ....    0.2500
   Turn off err/grad.   ShiftErr        ....    0.0010
 Zerner damping         CNVZerner       .... off
 Static damping         CNVDamp         .... on
   Fraction old density DampFac         ....    0.7000
   Max. Damping (<1)    DampMax         ....    0.9800
   Min. Damping (>=0)   DampMin         ....    0.0000
   Turn off err/grad.   DampErr         ....    0.1000

SCF Procedure:
 Maximum # iterations   MaxIter         ....   800
 SCF integral mode      SCFMode         .... Direct
   Integral package                     .... SHARK and LIBINT hybrid scheme
 Reset frequency        DirectResetFreq ....    20
 Integral Threshold     Thresh          ....  2.500e-11 Eh
 Primitive CutOff       TCut            ....  2.500e-12 Eh

Convergence Tolerance:
 Convergence Check Mode ConvCheckMode   .... Total+1el-Energy
 Convergence forced     ConvForced      .... 0
 Energy Change          TolE            ....  1.000e-08 Eh
 1-El. energy change                    ....  1.000e-05 Eh
 Orbital Gradient       TolG            ....  1.000e-05
 Orbital Rotation angle TolX            ....  1.000e-05
 DIIS Error             TolErr          ....  5.000e-07

--------------------------------
INITIAL GUESS: MINIMAL BASIS EHT
--------------------------------
The minimal basis has 68 functions
EHT matrix was diagonalized
Basis set overlap was calculated now projecting the orbitals
Using GuessMode=FMatrix for the initial guess
C*T matrix was formed
Effective Fockian was calculated
Effective Fockian was diagonalized
Initial density was built
                      ------------------
                      INITIAL GUESS DONE
                      ------------------
             **** ENERGY FILE WAS UPDATED (m1_00_Vitamin_C-B97-3C-TZ.en.tmp) ****
Finished Guess after   0.6 sec
Maximum memory used throughout the entire GUESS-calculation: 15.4 MB


           ************************************************************
           *        Program running with 16 parallel MPI-processes    *
           *              working on a common directory               *
           ************************************************************

-------------------------------------------------------------------------------------------
                                      ORCA LEAN-SCF
                              memory conserving SCF solver
-------------------------------------------------------------------------------------------

----------------------------------------D-I-I-S--------------------------------------------
Iteration    Energy (Eh)           Delta-E    RMSDP     MaxDP     DIISErr   Damp  Time(sec)
-------------------------------------------------------------------------------------------
               ***  Starting incremental Fock matrix formation  ***
    1    -681.8692915689464371     0.00e+00  9.13e-03  4.58e-01  4.60e-01  0.700   0.8
Warning: op=0 Small HOMO/LUMO gap (   0.086) - skipping pre-diagonalization
         Will do a full diagonalization
    2    -682.8206700952132451    -9.51e-01  9.59e-03  8.19e-01  3.30e-01  0.700   0.3
    3    -683.2844913182775599    -4.64e-01  4.36e-03  3.12e-01  2.31e-01  0.700   0.3
                               ***Turning on AO-DIIS***
    4    -683.6106928891654206    -3.26e-01  2.97e-03  1.93e-01  1.61e-01  0.700   0.3
    5    -683.8398294604021430    -2.29e-01  2.18e-03  1.51e-01  1.13e-01  0.700   0.3
    6    -684.0014774504800243    -1.62e-01  1.41e-03  8.52e-02  7.87e-02  0.700   0.3
    7    -684.1152118701008931    -1.14e-01  3.19e-03  1.08e-01  5.52e-02  0.000   0.3
    8    -684.3783525885642121    -2.63e-01  6.74e-04  4.15e-02  2.55e-02  0.000   0.3
    9    -684.3803572460014948    -2.00e-03  2.93e-04  2.17e-02  1.18e-02  0.000   0.3
   10    -684.3804265091896468    -6.93e-05  8.77e-05  4.65e-03  7.69e-03  0.000   0.3
                              *** Initializing SOSCF ***
---------------------------------------S-O-S-C-F--------------------------------------
Iteration    Energy (Eh)           Delta-E    RMSDP     MaxDP     MaxGrad    Time(sec)
--------------------------------------------------------------------------------------
   11    -684.3805768567426639    -1.50e-04  5.55e-05  4.83e-03  1.36e-03     0.3
               *** Restarting incremental Fock matrix formation ***
   12    -684.3805845172635145    -7.66e-06  7.57e-05  7.07e-03  1.20e-04     0.3
   13    -684.3805830383357716     1.48e-06  1.40e-05  6.27e-04  2.75e-04     0.3
   14    -684.3805848908791631    -1.85e-06  2.10e-05  1.61e-03  3.84e-05     0.3
   15    -684.3805847250428087     1.66e-07  5.01e-06  3.29e-04  9.08e-05     0.3
   16    -684.3805849158627552    -1.91e-07  4.17e-06  1.80e-04  1.38e-05     0.3
   17    -684.3805849064931408     9.37e-09  1.83e-06  9.91e-05  3.72e-05     0.2
                 **** Energy Check signals convergence ****

               *****************************************************
               *                     SUCCESS                       *
               *           SCF CONVERGED AFTER  17 CYCLES          *
               *****************************************************

             **** ENERGY FILE WAS UPDATED (m1_00_Vitamin_C-B97-3C-TZ.en.tmp) ****

----------------
TOTAL SCF ENERGY
----------------

Total Energy       :       -684.38058490649314 Eh          -18622.94249 eV

Components:
Nuclear Repulsion  :        761.40191055351261 Eh           20718.79931 eV
Electronic Energy  :      -1445.78249546000575 Eh          -39341.74180 eV
One Electron Energy:      -2449.26337252112216 Eh          -66647.84468 eV
Two Electron Energy:       1003.48087706111642 Eh           27306.10288 eV

Virial components:
Potential Energy   :      -1366.21518384075830 Eh          -37176.60517 eV
Kinetic Energy     :        681.83459893426516 Eh           18553.66269 eV
Virial Ratio       :          2.00373402284983

DFT components:
N(Alpha)           :       45.999996583256 electrons
N(Beta)            :       45.999996583256 electrons
N(Total)           :       91.999993166511 electrons
E(XC)              :      -86.605110705296 Eh       

---------------
SCF CONVERGENCE
---------------

  Last Energy change         ...   -9.3696e-09  Tolerance :   1.0000e-08
  Last MAX-Density change    ...    9.9131e-05  Tolerance :   1.0000e-07
  Last RMS-Density change    ...    1.8280e-06  Tolerance :   5.0000e-09
  Last DIIS Error            ...    1.3623e-03  Tolerance :   5.0000e-07
  Last Orbital Gradient      ...    3.7200e-05  Tolerance :   1.0000e-05
  Last Orbital Rotation      ...    7.3056e-05  Tolerance :   1.0000e-05


----------------
ORBITAL ENERGIES
----------------

  NO   OCC          E(Eh)            E(eV) 
   0   2.0000     -18.812303      -511.9088 
   1   2.0000     -18.811143      -511.8772 
   2   2.0000     -18.791280      -511.3367 
   3   2.0000     -18.758483      -510.4443 
   4   2.0000     -18.758092      -510.4336 
   5   2.0000     -18.742428      -510.0074 
   6   2.0000     -10.026515      -272.8353 
   7   2.0000      -9.993059      -271.9250 
   8   2.0000      -9.978254      -271.5221 
   9   2.0000      -9.975147      -271.4376 
  10   2.0000      -9.961366      -271.0626 
  11   2.0000      -9.958580      -270.9867 
  12   2.0000      -1.043778       -28.4026 
  13   2.0000      -1.011241       -27.5173 
  14   2.0000      -0.991731       -26.9864 
  15   2.0000      -0.968139       -26.3444 
  16   2.0000      -0.954751       -25.9801 
  17   2.0000      -0.944609       -25.7041 
  18   2.0000      -0.758170       -20.6309 
  19   2.0000      -0.733387       -19.9565 
  20   2.0000      -0.661089       -17.9891 
  21   2.0000      -0.597180       -16.2501 
  22   2.0000      -0.580808       -15.8046 
  23   2.0000      -0.562002       -15.2928 
  24   2.0000      -0.515420       -14.0253 
  25   2.0000      -0.504441       -13.7265 
  26   2.0000      -0.491858       -13.3841 
  27   2.0000      -0.466729       -12.7003 
  28   2.0000      -0.460519       -12.5314 
  29   2.0000      -0.442535       -12.0420 
  30   2.0000      -0.413924       -11.2634 
  31   2.0000      -0.403828       -10.9887 
  32   2.0000      -0.395932       -10.7738 
  33   2.0000      -0.391933       -10.6650 
  34   2.0000      -0.381788       -10.3890 
  35   2.0000      -0.369554       -10.0561 
  36   2.0000      -0.352241        -9.5850 
  37   2.0000      -0.334112        -9.0917 
  38   2.0000      -0.326921        -8.8960 
  39   2.0000      -0.324633        -8.8337 
  40   2.0000      -0.300110        -8.1664 
  41   2.0000      -0.283712        -7.7202 
  42   2.0000      -0.249699        -6.7947 
  43   2.0000      -0.248635        -6.7657 
  44   2.0000      -0.239795        -6.5252 
  45   2.0000      -0.205235        -5.5847 
  46   0.0000      -0.064835        -1.7643 
  47   0.0000      -0.025427        -0.6919 
  48   0.0000      -0.003194        -0.0869 
  49   0.0000       0.012903         0.3511 
  50   0.0000       0.014704         0.4001 
  51   0.0000       0.041459         1.1282 
  52   0.0000       0.044192         1.2025 
  53   0.0000       0.052940         1.4406 
  54   0.0000       0.061829         1.6825 
  55   0.0000       0.076729         2.0879 
  56   0.0000       0.098149         2.6708 
*Only the first 10 virtual orbitals were printed.

                    ********************************
                    * MULLIKEN POPULATION ANALYSIS *
                    ********************************

-----------------------
MULLIKEN ATOMIC CHARGES
-----------------------
   0 O :   -0.288508
   1 O :   -0.551389
   2 O :   -0.516566
   3 O :   -0.539019
   4 O :   -0.540489
   5 O :   -0.366969
   6 C :   -0.172855
   7 C :   -0.001163
   8 C :    0.256477
   9 C :   -0.198067
  10 C :    0.159085
  11 C :    0.276430
  12 H :    0.221999
  13 H :    0.190789
  14 H :    0.173324
  15 H :    0.138238
  16 H :    0.432298
  17 H :    0.443499
  18 H :    0.429847
  19 H :    0.453039
Sum of atomic charges:    0.0000000

--------------------------------
MULLIKEN REDUCED ORBITAL CHARGES
--------------------------------
  0 O s       :     3.749690  s :     3.749690
      pz      :     1.703719  p :     4.489928
      px      :     1.386987
      py      :     1.399221
      dz2     :     0.014087  d :     0.048891
      dxz     :     0.006906
      dyz     :     0.002048
      dx2y2   :     0.018761
      dxy     :     0.007089

  1 O s       :     3.825772  s :     3.825772
      pz      :     1.411722  p :     4.695030
      px      :     1.859701
      py      :     1.423607
      dz2     :     0.014973  d :     0.030586
      dxz     :    -0.000272
      dyz     :    -0.008255
      dx2y2   :     0.016036
      dxy     :     0.008104

  2 O s       :     3.801132  s :     3.801132
      pz      :     1.762849  p :     4.660781
      px      :     1.553368
      py      :     1.344563
      dz2     :     0.009401  d :     0.054653
      dxz     :     0.009770
      dyz     :     0.007250
      dx2y2   :     0.017590
      dxy     :     0.010642

  3 O s       :     3.817498  s :     3.817498
      pz      :     1.662695  p :     4.688944
      px      :     1.273043
      py      :     1.753206
      dz2     :     0.004866  d :     0.032577
      dxz     :     0.011653
      dyz     :     0.005558
      dx2y2   :    -0.000518
      dxy     :     0.011019

  4 O s       :     3.792563  s :     3.792563
      pz      :     1.768513  p :     4.701100
      px      :     1.355999
      py      :     1.576587
      dz2     :     0.005631  d :     0.046827
      dxz     :     0.004559
      dyz     :     0.008123
      dx2y2   :     0.012462
      dxy     :     0.016052

  5 O s       :     3.844302  s :     3.844302
      pz      :     1.472629  p :     4.490928
      px      :     1.556183
      py      :     1.462115
      dz2     :     0.005113  d :     0.031740
      dxz     :     0.002689
      dyz     :     0.005904
      dx2y2   :     0.006712
      dxy     :     0.011321

  6 C s       :     3.194526  s :     3.194526
      pz      :     1.154784  p :     2.908269
      px      :     1.011023
      py      :     0.742461
      dz2     :     0.015766  d :     0.070061
      dxz     :     0.011032
      dyz     :     0.011699
      dx2y2   :     0.014888
      dxy     :     0.016675

  7 C s       :     3.045059  s :     3.045059
      pz      :     0.748821  p :     2.886398
      px      :     0.985679
      py      :     1.151898
      dz2     :     0.018729  d :     0.069706
      dxz     :     0.020892
      dyz     :     0.009123
      dx2y2   :     0.012265
      dxy     :     0.008697

  8 C s       :     3.025404  s :     3.025404
      pz      :     0.960809  p :     2.646903
      px      :     0.950950
      py      :     0.735143
      dz2     :     0.006369  d :     0.071216
      dxz     :     0.006073
      dyz     :     0.018275
      dx2y2   :     0.018582
      dxy     :     0.021918

  9 C s       :     3.260759  s :     3.260759
      pz      :     0.983576  p :     2.873186
      px      :     0.822634
      py      :     1.066976
      dz2     :     0.018299  d :     0.064122
      dxz     :     0.013367
      dyz     :     0.004959
      dx2y2   :     0.013850
      dxy     :     0.013647

 10 C s       :     2.997932  s :     2.997932
      pz      :     1.034322  p :     2.771028
      px      :     0.822864
      py      :     0.913842
      dz2     :     0.010707  d :     0.071955
      dxz     :     0.016130
      dyz     :     0.006375
      dx2y2   :     0.018688
      dxy     :     0.020055

 11 C s       :     3.046992  s :     3.046992
      pz      :     0.841322  p :     2.557505
      px      :     0.806854
      py      :     0.909329
      dz2     :     0.010321  d :     0.119073
      dxz     :     0.018408
      dyz     :     0.019360
      dx2y2   :     0.043769
      dxy     :     0.027215

 12 H s       :     0.778001  s :     0.778001

 13 H s       :     0.809211  s :     0.809211

 14 H s       :     0.826676  s :     0.826676

 15 H s       :     0.861762  s :     0.861762

 16 H s       :     0.567702  s :     0.567702

 17 H s       :     0.556501  s :     0.556501

 18 H s       :     0.570153  s :     0.570153

 19 H s       :     0.546961  s :     0.546961



                     *******************************
                     * LOEWDIN POPULATION ANALYSIS *
                     *******************************

----------------------
LOEWDIN ATOMIC CHARGES
----------------------
   0 O :   -0.620286
   1 O :   -0.661463
   2 O :   -0.544519
   3 O :   -0.723165
   4 O :   -0.543797
   5 O :   -0.384881
   6 C :    0.154821
   7 C :    0.129012
   8 C :    0.254853
   9 C :    0.052520
  10 C :    0.234564
  11 C :    0.398100
  12 H :    0.201944
  13 H :    0.196463
  14 H :    0.185369
  15 H :    0.166335
  16 H :    0.373189
  17 H :    0.377869
  18 H :    0.364466
  19 H :    0.388606

-------------------------------
LOEWDIN REDUCED ORBITAL CHARGES
-------------------------------
  0 O s       :     3.466362  s :     3.466362
      pz      :     1.686881  p :     4.609156
      px      :     1.453157
      py      :     1.469118
      dz2     :     0.086535  d :     0.544767
      dxz     :     0.096465
      dyz     :     0.089909
      dx2y2   :     0.138356
      dxy     :     0.133502

  1 O s       :     3.550201  s :     3.550201
      pz      :     1.493207  p :     4.777354
      px      :     1.816441
      py      :     1.467706
      dz2     :     0.101078  d :     0.333907
      dxz     :     0.076858
      dyz     :     0.074933
      dx2y2   :     0.050660
      dxy     :     0.030378

  2 O s       :     3.532414  s :     3.532414
      pz      :     1.753722  p :     4.736341
      px      :     1.558299
      py      :     1.424319
      dz2     :     0.030177  d :     0.275764
      dxz     :     0.020555
      dyz     :     0.070639
      dx2y2   :     0.075977
      dxy     :     0.078416

  3 O s       :     3.565087  s :     3.565087
      pz      :     1.713976  p :     4.839868
      px      :     1.358375
      py      :     1.767517
      dz2     :     0.067868  d :     0.318209
      dxz     :     0.091537
      dyz     :     0.028907
      dx2y2   :     0.049445
      dxy     :     0.080453

  4 O s       :     3.523422  s :     3.523422
      pz      :     1.764432  p :     4.754244
      px      :     1.419579
      py      :     1.570232
      dz2     :     0.042902  d :     0.266132
      dxz     :     0.061720
      dyz     :     0.021867
      dx2y2   :     0.063400
      dxy     :     0.076243

  5 O s       :     3.543759  s :     3.543759
      pz      :     1.470245  p :     4.620083
      px      :     1.585465
      py      :     1.564373
      dz2     :     0.029803  d :     0.221039
      dxz     :     0.025719
      dyz     :     0.038431
      dx2y2   :     0.066609
      dxy     :     0.060478

  6 C s       :     2.806658  s :     2.806658
      pz      :     1.047943  p :     2.900486
      px      :     1.018130
      py      :     0.834414
      dz2     :     0.028892  d :     0.138035
      dxz     :     0.020867
      dyz     :     0.021921
      dx2y2   :     0.032716
      dxy     :     0.033638

  7 C s       :     2.818960  s :     2.818960
      pz      :     0.882085  p :     2.912660
      px      :     0.992113
      py      :     1.038463
      dz2     :     0.039764  d :     0.139368
      dxz     :     0.043493
      dyz     :     0.018617
      dx2y2   :     0.021548
      dxy     :     0.015946

  8 C s       :     2.759042  s :     2.759042
      pz      :     0.945461  p :     2.829720
      px      :     1.007574
      py      :     0.876685
      dz2     :     0.014327  d :     0.156385
      dxz     :     0.011368
      dyz     :     0.035900
      dx2y2   :     0.044764
      dxy     :     0.050027

  9 C s       :     2.867338  s :     2.867338
      pz      :     0.994407  p :     2.954915
      px      :     0.898932
      py      :     1.061576
      dz2     :     0.033581  d :     0.125228
      dxz     :     0.029520
      dyz     :     0.008435
      dx2y2   :     0.026193
      dxy     :     0.027499

 10 C s       :     2.750271  s :     2.750271
      pz      :     0.960472  p :     2.857929
      px      :     0.910625
      py      :     0.986832
      dz2     :     0.020968  d :     0.157237
      dxz     :     0.033897
      dyz     :     0.012990
      dx2y2   :     0.042370
      dxy     :     0.047011

 11 C s       :     2.731857  s :     2.731857
      pz      :     0.772983  p :     2.606406
      px      :     0.855774
      py      :     0.977649
      dz2     :     0.023085  d :     0.263637
      dxz     :     0.041271
      dyz     :     0.036804
      dx2y2   :     0.098801
      dxy     :     0.063676

 12 H s       :     0.798056  s :     0.798056

 13 H s       :     0.803537  s :     0.803537

 14 H s       :     0.814631  s :     0.814631

 15 H s       :     0.833665  s :     0.833665

 16 H s       :     0.626811  s :     0.626811

 17 H s       :     0.622131  s :     0.622131

 18 H s       :     0.635534  s :     0.635534

 19 H s       :     0.611394  s :     0.611394



                      *****************************
                      * MAYER POPULATION ANALYSIS *
                      *****************************

  NA   - Mulliken gross atomic population
  ZA   - Total nuclear charge
  QA   - Mulliken gross atomic charge
  VA   - Mayer's total valence
  BVA  - Mayer's bonded valence
  FA   - Mayer's free valence

  ATOM       NA         ZA         QA         VA         BVA        FA
  0 O      8.2885     8.0000    -0.2885     2.0543     2.0543     0.0000
  1 O      8.5514     8.0000    -0.5514     1.8215     1.8215     0.0000
  2 O      8.5166     8.0000    -0.5166     2.0508     2.0508    -0.0000
  3 O      8.5390     8.0000    -0.5390     1.7770     1.7770     0.0000
  4 O      8.5405     8.0000    -0.5405     1.9898     1.9898     0.0000
  5 O      8.3670     8.0000    -0.3670     2.1899     2.1899    -0.0000
  6 C      6.1729     6.0000    -0.1729     3.6284     3.6284     0.0000
  7 C      6.0012     6.0000    -0.0012     3.7248     3.7248     0.0000
  8 C      5.7435     6.0000     0.2565     4.0567     4.0567    -0.0000
  9 C      6.1981     6.0000    -0.1981     3.9022     3.9022     0.0000
 10 C      5.8409     6.0000     0.1591     3.9116     3.9116    -0.0000
 11 C      5.7236     6.0000     0.2764     4.0367     4.0367    -0.0000
 12 H      0.7780     1.0000     0.2220     0.9011     0.9011     0.0000
 13 H      0.8092     1.0000     0.1908     0.9341     0.9341     0.0000
 14 H      0.8267     1.0000     0.1733     0.9448     0.9448     0.0000
 15 H      0.8618     1.0000     0.1382     0.9357     0.9357     0.0000
 16 H      0.5677     1.0000     0.4323     0.7939     0.7939     0.0000
 17 H      0.5565     1.0000     0.4435     0.7760     0.7760    -0.0000
 18 H      0.5702     1.0000     0.4298     0.7863     0.7863     0.0000
 19 H      0.5470     1.0000     0.4530     0.7795     0.7795     0.0000

  Mayer bond orders larger than 0.100000
B(  0-O ,  6-C ) :   0.9301 B(  0-O , 11-C ) :   1.0083 B(  1-O ,  6-C ) :  -0.1067 
B(  1-O ,  7-C ) :   1.1247 B(  1-O , 16-H ) :   0.7552 B(  2-O ,  8-C ) :   1.1847 
B(  2-O , 17-H ) :   0.7432 B(  3-O ,  9-C ) :   1.0538 B(  3-O , 18-H ) :   0.7712 
B(  4-O , 10-C ) :   1.1393 B(  4-O , 19-H ) :   0.7254 B(  5-O , 11-C ) :   2.0461 
B(  6-C ,  7-C ) :   0.8444 B(  6-C ,  8-C ) :   0.9668 B(  6-C , 12-H ) :   0.8815 
B(  7-C ,  9-C ) :   1.0276 B(  7-C , 13-H ) :   0.8883 B(  8-C , 10-C ) :   1.7275 
B(  9-C , 14-H ) :   0.9429 B(  9-C , 15-H ) :   0.9239 B( 10-C , 11-C ) :   0.8858 



------------------
HIRSHFELD ANALYSIS
------------------

Total integrated alpha density =     45.999996583
Total integrated beta density  =     45.999996583

  ATOM     CHARGE      SPIN    
   0 O   -0.131247    0.000000
   1 O   -0.229108    0.000000
   2 O   -0.165043    0.000000
   3 O   -0.239480    0.000000
   4 O   -0.180020    0.000000
   5 O   -0.287918    0.000000
   6 C    0.057499    0.000000
   7 C    0.062856    0.000000
   8 C    0.057977    0.000000
   9 C    0.025310    0.000000
  10 C    0.034695    0.000000
  11 C    0.178431    0.000000
  12 H    0.046657    0.000000
  13 H    0.047776    0.000000
  14 H    0.028497    0.000000
  15 H    0.023157    0.000000
  16 H    0.154865    0.000000
  17 H    0.176880    0.000000
  18 H    0.161403    0.000000
  19 H    0.176821    0.000000

  TOTAL   0.000007    0.000000

-------------------------
CHELPG CHARGES GENERATION
-------------------------
Grid spacing                       ...     0.300000
Point Cut-Off                      ...     2.800000
Van-der-Waals Radii                ...        COSMO
Total charge                       ...            0
Dipole moment constraint           ...        FALSE


Number of points X direction       ...           45
Number of points Y direction       ...           34
Number of points Z direction       ...           29
Maximum number of possible points  ...        44370
Final number of points             ...        12310


Grid generated                     ...   0.0 sec
Potential calculated               ...   0.2 sec
RespFile stored                    ... ok
Charges calculated                 ...   0.0 sec
CHELPG Charges            
--------------------------------
  0   O   :      -0.236134
  1   O   :      -0.572855
  2   O   :      -0.402958
  3   O   :      -0.607647
  4   O   :      -0.415313
  5   O   :      -0.478786
  6   C   :      -0.477933
  7   C   :       0.378592
  8   C   :       0.281412
  9   C   :       0.008630
 10   C   :       0.008970
 11   C   :       0.522086
 12   H   :       0.221850
 13   H   :       0.120229
 14   H   :       0.081767
 15   H   :       0.034794
 16   H   :       0.403708
 17   H   :       0.346052
 18   H   :       0.409045
 19   H   :       0.374491
--------------------------------
Total charge:     0.000000
--------------------------------

CHELPG charges calculated...

Timings:
Grid generation                 ...        0.003 sec (=   0.000 min)
Potential calculation           ...        0.175 sec (=   0.003 min)
Fit to the potential            ...        0.030 sec (=   0.001 min)
------------------------------------------------------------------------------

-------
TIMINGS
-------

Total SCF time: 0 days 0 hours 0 min 6 sec 

Total time                  ....       6.398 sec
Sum of individual times     ....       6.280 sec  ( 98.2%)

SCF preparation             ....       0.302 sec  (  4.7%)
Fock matrix formation       ....       4.828 sec  ( 75.5%)
  Startup                   ....       0.015 sec  (  0.3% of F)
  Split-RI-J                ....       0.893 sec  ( 18.5% of F)
  XC integration            ....       3.700 sec  ( 76.6% of F)
    XC Preparation          ....       0.000 sec  (  0.0% of XC)
    Basis function eval.    ....       0.805 sec  ( 21.8% of XC)
    Density eval.           ....       0.714 sec  ( 19.3% of XC)
    XC-Functional eval.     ....       0.102 sec  (  2.8% of XC)
    XC-Potential eval.      ....       0.746 sec  ( 20.2% of XC)
Diagonalization             ....       0.000 sec  (  0.0%)
Density matrix formation    ....       0.051 sec  (  0.8%)
Total Energy calculation    ....       0.024 sec  (  0.4%)
Population analysis         ....       0.626 sec  (  9.8%)
Orbital Transformation      ....       0.039 sec  (  0.6%)
Orbital Orthonormalization  ....       0.000 sec  (  0.0%)
DIIS solution               ....       0.318 sec  (  5.0%)
SOSCF solution              ....       0.091 sec  (  1.4%)
Finished LeanSCF after   6.4 sec

Maximum memory used throughout the entire LEANSCF-calculation: 39.8 MB


           ************************************************************
           *        Program running with 16 parallel MPI-processes    *
           *              working on a common directory               *
           ************************************************************

------------------------------------------------------------------------------
                         ORCA PROPERTY INTEGRAL CALCULATIONS
------------------------------------------------------------------------------

GBWName                                   ... m1_00_Vitamin_C-B97-3C-TZ.gbw
Number of atoms                           ...     20
Number of basis functions                 ...    282
Max core memory                           ...   6000 MB

Dipole integrals                          ... YES
Quadrupole integrals                      ...  NO
Linear momentum integrals                 ...  NO
Angular momentum integrals                ...  NO
Higher moments length integrals           ...  NO
Higher moments velocity integrals         ...  NO
Kinetic energy integrals                  ...  NO
GIAO right hand sides                     ...  NO
GIAO dipole derivative integrals          ...  NO
SOC integrals                             ...  NO
EPR diamagnetic integrals (GIAO)          ...  NO
EPR gauge integrals                       ...  NO
Field gradient integrals                  ...  NO (   0 nuclei)
Spin-dipole/Fermi contact integrals       ...  NO (   0 nuclei)
Contact density integrals                 ...  NO (   0 nuclei)
Nucleus-orbit integrals                   ...  NO (   0 nuclei)
Geometric perturbations                   ...  NO (  20 nuclei)

Choice of electric origin   ... Center of mass
Position of electric origin ... ( -0.0792, -0.0052, -0.0410) 
Choice of magnetic origin   ... GIAO
Position of magnetic origin ... (  0.0000,  0.0000,  0.0000) 

Calculating integrals                     ... Electric Dipole (Length)     done (  0.1 sec)

Property integrals calculated in   0.1 sec

Maximum memory used throughout the entire PROPINT-calculation: 15.9 MB


-------------------------------------------------------------------------------
                          DFT DISPERSION CORRECTION                            
                                                                               
                              DFTD3 V3.1  Rev 1                                
                          USING Becke-Johnson damping                          
-------------------------------------------------------------------------------
The B97-3c composite method is recognized
Using three-body term ABC
Active option DFTDOPT                   ...         4   

molecular C6(AA) [au] = 3730.371034 


            DFT-D V3
 parameters
 s6 scaling factor         :     1.0000 
 a1 scaling factor         :     0.3700 
 s8 scaling factor         :     1.5000 
 a2 scaling factor         :     4.1000 
 Damping factor alpha9(ATM):    16.0000 
 ad hoc parameters k1-k3   :    16.0000     1.3333    -4.0000 

 Edisp/kcal,au: -27.654743306330  -0.044070633989 
 E6   /kcal   : -14.190104422 
 E8   /kcal   : -13.506246281 
 E6(ABC)      :   0.041607397 
 % E8         :  48.838805451 
 % E6(ABC)    :  -0.150453021 

-------------------------   ----------------
Dispersion correction           -0.044070634
-------------------------   ----------------

------------------   -----------------
SRB correction            -0.057079336
------------------   -----------------

-------------------------   --------------------
FINAL SINGLE POINT ENERGY      -684.481734876883
-------------------------   --------------------



           ************************************************************
           *        Program running with 16 parallel MPI-processes    *
           *              working on a common directory               *
           ************************************************************
------------------------------------------------------------------------------
                         ORCA SCF GRADIENT CALCULATION
------------------------------------------------------------------------------

Nuc. rep. gradient        (SHARK) ... done (  0.0 sec)
HCore & Overlap gradient  (SHARK) ... done (  0.1 sec)
Split-RIJ-J gradient      (SHARK) ... done (  0.4 sec)
XC gradient                       ... done (  1.7 sec)
Dispersion correction             ... done (  0.2 sec)

-------------------
DISPERSION GRADIENT
-------------------

   1   O   :    0.000311538   -0.000619222    0.000366382
   2   O   :   -0.000446199    0.000051588   -0.001006069
   3   O   :    0.000264519    0.000959464    0.000079785
   4   O   :   -0.000675202   -0.000082329   -0.000049096
   5   O   :    0.000730175    0.000199369   -0.000277315
   6   O   :    0.000328713   -0.000860927   -0.000038651
   7   C   :    0.000070800    0.000149195    0.000474456
   8   C   :   -0.000751419    0.000151475   -0.000174805
   9   C   :    0.000525162    0.000725264    0.000279972
  10   C   :   -0.000890078   -0.000171018    0.000132146
  11   C   :    0.001024541    0.000008116   -0.000116796
  12   C   :    0.000734461   -0.000843804    0.000107564
  13   H   :   -0.000036652    0.000081643    0.000660493
  14   H   :   -0.000356185    0.000436094   -0.000122972
  15   H   :   -0.000377067   -0.000392547    0.000105599
  16   H   :   -0.000384393   -0.000059520    0.000311333
  17   H   :   -0.000208400   -0.000267331   -0.000654984
  18   H   :    0.000061818    0.000588210    0.000109028
  19   H   :   -0.000331295   -0.000084983   -0.000024113
  20   H   :    0.000405162    0.000031264   -0.000161957

Difference to translation invariance:
           :    0.0000000000    0.0000000000    0.0000000000

Difference to rotation invariance:
           :   -0.0000000000    0.0000000000    0.0000000000

Norm of the Dispersion gradient    ...    0.0035005505
RMS gradient                       ...    0.0004519191
MAX gradient                       ...    0.0010245409
SRB correction                   ... done

------------------
CARTESIAN GRADIENT
------------------

   1   O   :    0.007343683    0.012088861   -0.005733708
   2   O   :   -0.001663531   -0.006788465   -0.000994624
   3   O   :    0.008538309    0.008937648   -0.003404489
   4   O   :    0.007100178   -0.001378401   -0.001205060
   5   O   :    0.006592044    0.008020143   -0.002626520
   6   O   :    0.015036443   -0.007637718   -0.006000462
   7   C   :   -0.006987084    0.005387656   -0.001789851
   8   C   :    0.006354910    0.024187077    0.017273077
   9   C   :   -0.003996948   -0.031388081   -0.002208787
  10   C   :    0.012934577    0.000281630   -0.002022839
  11   C   :   -0.004350710    0.007372396    0.001345795
  12   C   :   -0.024024332   -0.005732833    0.010190962
  13   H   :    0.000847999    0.001900352    0.000123591
  14   H   :   -0.001596561    0.002941502    0.000558838
  15   H   :   -0.009096566   -0.002808199   -0.004548465
  16   H   :   -0.005387330    0.000467187   -0.003585479
  17   H   :    0.002530722   -0.006684466   -0.002043026
  18   H   :   -0.006995338   -0.001588636    0.003884047
  19   H   :   -0.006349201   -0.005580276    0.003920241
  20   H   :    0.003168735   -0.001997376   -0.001133240

Difference to translation invariance:
           :    0.0000000000    0.0000000000   -0.0000000000

Difference to rotation invariance:
           :   -0.0000226224    0.0000268433    0.0000112836

Norm of the Cartesian gradient     ...    0.0655788481
RMS gradient                       ...    0.0084661929
MAX gradient                       ...    0.0313880811

-------
TIMINGS
-------

Total SCF gradient time     ....        2.405 sec

Densities                   ....       0.001 sec  (  0.1%)
One electron gradient       ....       0.070 sec  (  2.9%)
RI-J Coulomb gradient       ....       0.404 sec  ( 16.8%)
XC gradient                 ....       1.734 sec  ( 72.1%)

Maximum memory used throughout the entire SCFGRAD-calculation: 48.0 MB
------------------------------------------------------------------------------
                         ORCA GEOMETRY RELAXATION STEP
------------------------------------------------------------------------------

Reading the OPT-File                    .... done
Getting information on internals        .... done
Copying old internal coords+grads       .... done
Making the new internal coordinates     .... (2022 redundants) done
Validating the new internal coordinates .... (2022 redundants) done
Calculating the B-matrix                .... done
Calculating the G,G- and P matrices     .... done
Transforming gradient to internals      .... done
Projecting the internal gradient        .... done
Number of atoms                         ....  20
Number of internal coordinates          ....  93
Current Energy                          ....  -684.481734877 Eh
Current gradient norm                   ....     0.065578848 Eh/bohr
Maximum allowed component of the step   ....  0.300
Current trust radius                    ....  0.300
Evaluating the initial hessian          ....  (Almloef) done
Projecting the Hessian                  .... done
Forming the augmented Hessian           .... done
Diagonalizing the augmented Hessian     .... done
Last element of RFO vector              ....  0.969897483
Lowest eigenvalues of augmented Hessian:
 -0.007890683  0.009211818  0.011794198  0.015426635  0.018307502
Length of the computed step             ....  0.251071483
The final length of the internal step   ....  0.251071483
Converting the step to Cartesian space:
 Initial RMS(Int)=    0.0260349000
Transforming coordinates:
 Iter   0:  RMS(Cart)=    0.0649785502 RMS(Int)=    1.2938345837
 Iter   5:  RMS(Cart)=    0.0000000708 RMS(Int)=    0.0000000537
done
Storing new coordinates                 .... done

                                .--------------------.
          ----------------------|Geometry convergence|-------------------------
          Item                value                   Tolerance       Converged
          ---------------------------------------------------------------------
          RMS gradient        0.0051143487            0.0000300000      NO
          MAX gradient        0.0154140939            0.0001000000      NO
          RMS step            0.0260349000            0.0020000000      NO
          MAX step            0.1179655052            0.0040000000      NO
          ........................................................
          Max(Bonds)      0.0624      Max(Angles)    3.17
          Max(Dihed)        5.42      Max(Improp)    0.00
          ---------------------------------------------------------------------

The optimization has not yet converged - more geometry cycles are needed


    ---------------------------------------------------------------------------
                         Redundant Internal Coordinates
                            (Angstroem and degrees)

        Definition                    Value    dE/dq     Step     New-Value
    ----------------------------------------------------------------------------
     1. B(C   6,O   0)                1.4421 -0.000598 -0.0003    1.4418   
     2. B(C   7,O   1)                1.4271  0.007668 -0.0079    1.4192   
     3. B(C   7,C   6)                1.5204 -0.005907  0.0084    1.5288   
     4. B(C   8,O   2)                1.3637  0.007367 -0.0062    1.3575   
     5. B(C   8,C   6)                1.4762 -0.010734  0.0112    1.4874   
     6. B(C   9,C   7)                1.5237  0.003190 -0.0043    1.5193   
     7. B(C   9,O   3)                1.4236 -0.003164  0.0033    1.4270   
     8. B(C  10,C   8)                1.3292 -0.006882  0.0049    1.3341   
     9. B(C  10,O   4)                1.3573  0.011637 -0.0096    1.3477   
    10. B(C  11,C  10)                1.4644  0.006813 -0.0061    1.4583   
    11. B(C  11,O   5)                1.2184  0.015414 -0.0077    1.2107   
    12. B(C  11,O   0)                1.3694 -0.001858  0.0019    1.3713   
    13. B(H  12,C   6)                1.0958  0.000329 -0.0005    1.0953   
    14. B(H  13,C   7)                1.0956  0.003268 -0.0048    1.0908   
    15. B(H  14,C   9)                1.0949  0.000889 -0.0013    1.0936   
    16. B(H  15,C   9)                1.0944 -0.002013  0.0029    1.0974   
    17. B(H  16,O   0)                2.3796 -0.001644  0.0624    2.4420   
    18. B(H  16,O   1)                0.9725  0.006771 -0.0072    0.9653   
    19. B(H  17,O   2)                0.9726  0.007080 -0.0074    0.9652   
    20. B(H  18,O   3)                0.9725  0.009291 -0.0097    0.9627   
    21. B(H  19,O   4)                0.9729  0.003471 -0.0036    0.9693   
    22. A(C   6,O   0,C  11)          110.07  0.005399   -1.06    109.01   
    23. A(C   7,O   1,H  16)          107.97  0.006153   -0.89    107.08   
    24. A(C   8,O   2,H  17)          107.55 -0.007380    1.13    108.68   
    25. A(C   9,O   3,H  18)          107.03 -0.001274    0.20    107.23   
    26. A(C  10,O   4,H  19)          107.20  0.003315   -0.51    106.70   
    27. A(O   0,C   6,C   8)          102.86 -0.006198    1.22    104.08   
    28. A(C   7,C   6,C   8)          114.01 -0.000985    0.64    114.65   
    29. A(O   0,C   6,H  12)          108.38  0.001648   -0.72    107.66   
    30. A(C   8,C   6,H  12)          111.00  0.001172   -0.21    110.79   
    31. A(O   0,C   6,C   7)          108.68  0.003258   -0.17    108.51   
    32. A(C   7,C   6,H  12)          111.42  0.000833   -0.68    110.73   
    33. A(C   6,C   7,C   9)          111.49  0.005911   -0.55    110.94   
    34. A(C   9,C   7,H  13)          109.67  0.001157   -1.21    108.46   
    35. A(C   6,C   7,H  13)          111.40  0.000380   -1.51    109.90   
    36. A(O   1,C   7,H  13)          106.94  0.003937   -1.34    105.61   
    37. A(O   1,C   7,C   6)          108.90 -0.002859    1.58    110.48   
    38. A(O   1,C   7,C   9)          108.27 -0.008967    3.17    111.44   
    39. A(O   2,C   8,C   6)          121.97 -0.007519    1.13    123.10   
    40. A(C   6,C   8,C  10)          111.83  0.010625   -1.59    110.24   
    41. A(O   2,C   8,C  10)          126.19 -0.003123    0.48    126.67   
    42. A(H  14,C   9,H  15)          109.25  0.003903   -0.82    108.42   
    43. A(O   3,C   9,H  15)          108.68 -0.009629    1.36    110.04   
    44. A(C   7,C   9,H  14)          111.61  0.007921   -1.51    110.10   
    45. A(O   3,C   9,H  14)          107.14 -0.010359    2.67    109.81   
    46. A(O   3,C   9,C   7)          108.98  0.004514   -0.57    108.41   
    47. A(C   7,C   9,H  15)          111.06  0.002685   -0.91    110.16   
[...]
     26       0.000650   0.000170  -0.000386  -0.000047  -0.000292   0.000004
     27       0.005649  -0.009584  -0.000014  -0.000025   0.000074  -0.000739
     28      -0.036997   0.053260  -0.000033  -0.000474  -0.000110   0.001955
     29      -0.015230   0.037726   0.000020  -0.000218  -0.000101  -0.000964
     30       0.000854   0.000381  -0.001639   0.000034  -0.000267   0.000008
     31      -0.000274  -0.000398   0.002048   0.000074   0.001227   0.000003
     32      -0.000236  -0.000094   0.000476  -0.000026   0.000141   0.000004
     33       0.000949   0.000823   0.001543   0.000020  -0.000129   0.000076
     34      -0.000474  -0.000125  -0.001476  -0.000268  -0.000722  -0.000038
     35      -0.000282  -0.000315  -0.000466   0.000002  -0.000062  -0.000019
     36       0.161020   0.060816   0.000302  -0.001132  -0.000783   0.000024
     37      -0.141512  -0.056557   0.000848   0.000622  -0.000963   0.000144
     38      -0.851629  -0.344089  -0.000498  -0.001139  -0.000804   0.000523
     39       0.011545   0.182198  -0.000319   0.004017   0.003632  -0.000217
     40      -0.020555  -0.569166   0.000312  -0.013377  -0.006430  -0.002918
     41      -0.002307  -0.060474  -0.000083   0.000136  -0.000509  -0.000050
     42      -0.079992   0.107875   0.000037  -0.001832  -0.000662  -0.003224
     43       0.443287  -0.620131   0.000240   0.000577  -0.000768  -0.003358
     44       0.122681  -0.169043   0.000081   0.001541   0.000101  -0.001406
     45      -0.001588   0.010469   0.000007   0.001741   0.000038  -0.002478
     46      -0.004081  -0.005232  -0.000018   0.000405   0.000184   0.001112
     47       0.056832  -0.284390   0.000014  -0.002299   0.000271  -0.002811
     48      -0.003997   0.000171  -0.001977   0.294251  -0.000814   0.001696
     49       0.000168   0.010712   0.005769  -0.937028   0.001100  -0.003821
     50       0.000926  -0.008597   0.001022  -0.176804  -0.000216  -0.001084
     51       0.000557   0.003270   0.014164  -0.001002  -0.930464   0.001677
     52      -0.001452  -0.006677  -0.005239   0.000501   0.358639  -0.000501
     53       0.002282   0.001091  -0.000144  -0.000021   0.037670  -0.000075
     54       0.000204   0.002167   0.000322   0.003238  -0.001175  -0.708975
     55      -0.002331   0.002759   0.000232   0.002792  -0.001202  -0.678849
     56       0.003672  -0.004852  -0.000103  -0.000792   0.000352   0.180316
     57      -0.000098   0.000294   0.503634   0.002999   0.007799   0.000233
     58       0.000645   0.000108  -0.852362  -0.005340  -0.012601  -0.000296
     59       0.000172   0.000098  -0.125369  -0.000826  -0.002112  -0.000075


-----------
IR SPECTRUM
-----------

 Mode   freq       eps      Int      T**2         TX        TY        TZ
       cm**-1   L/(mol*cm) km/mol    a.u.
----------------------------------------------------------------------------
  6:     44.69   0.001776    8.97  0.012399  ( 0.020262 -0.040945 -0.101550)
  7:     64.57   0.000471    2.38  0.002278  (-0.007716  0.021893  0.041708)
  8:     97.19   0.000781    3.95  0.002507  ( 0.015967  0.024844  0.040432)
  9:    123.86   0.000659    3.33  0.001661  (-0.037322 -0.000789  0.016367)
 10:    142.36   0.000133    0.67  0.000291  (-0.011203 -0.012388 -0.003466)
 11:    190.83   0.017299   87.42  0.028288  ( 0.068480 -0.064013 -0.139646)
 12:    241.31   0.004222   21.34  0.005460  (-0.005587 -0.005672 -0.073461)
 13:    242.86   0.006355   32.12  0.008166  ( 0.029076 -0.034112 -0.078464)
 14:    254.31   0.006942   35.08  0.008518  (-0.079739 -0.046384 -0.002933)
 15:    274.81   0.012540   63.37  0.014240  ( 0.035091  0.050684  0.102176)
 16:    305.16   0.000539    2.72  0.000551  (-0.022199 -0.001237  0.007521)
 17:    322.59   0.021519  108.75  0.020817  ( 0.133279  0.040758  0.037321)
 18:    335.37   0.000475    2.40  0.000442  (-0.020904 -0.000562  0.002097)
 19:    370.51   0.000561    2.84  0.000473  ( 0.018168 -0.011001  0.004662)
 20:    441.11   0.018636   94.18  0.013184  ( 0.033780  0.007026  0.109517)
 21:    478.07   0.004351   21.99  0.002840  (-0.049360 -0.010611 -0.017061)
 22:    543.92   0.000818    4.14  0.000470  (-0.017271  0.011648  0.005965)
 23:    570.15   0.001351    6.83  0.000740  (-0.011635 -0.005478 -0.023961)
 24:    638.76   0.002957   14.94  0.001445  ( 0.032289  0.014065  0.014287)
 25:    680.95   0.002805   14.17  0.001285  (-0.019895  0.028763  0.007896)
 26:    723.62   0.010170   51.39  0.004386  ( 0.062487 -0.021929  0.000584)
 27:    741.01   0.002775   14.02  0.001169  (-0.014057  0.006149 -0.030548)
 28:    813.78   0.001526    7.71  0.000585  ( 0.017050  0.001496  0.017099)
 29:    870.06   0.005612   28.36  0.002013  (-0.027194  0.014073  0.032789)
 30:    920.51   0.000553    2.80  0.000188  (-0.010307 -0.002375 -0.008703)
 31:   1004.14   0.007357   37.18  0.002286  (-0.009770 -0.046103 -0.008088)
 32:   1031.31   0.008821   44.58  0.002669  ( 0.050326 -0.009586  0.006670)
 33:   1063.82   0.001763    8.91  0.000517  (-0.016325  0.015814  0.000805)
 34:   1075.52   0.025126  126.98  0.007290  (-0.077272  0.022675 -0.028380)
 35:   1103.61   0.032427  163.87  0.009169  ( 0.065288 -0.012530 -0.068919)
 36:   1119.04   0.015208   76.86  0.004241  (-0.062495 -0.002716 -0.018113)
 37:   1194.51   0.022968  116.07  0.006000  ( 0.051239  0.053859 -0.021772)
 38:   1210.00   0.005929   29.96  0.001529  (-0.034433  0.005229 -0.017780)
 39:   1243.47   0.006985   35.30  0.001753  (-0.036902 -0.001618  0.019714)
 40:   1285.44   0.034250  173.08  0.008315  (-0.038953 -0.080208  0.019081)
 41:   1292.83   0.002542   12.85  0.000614  (-0.016734  0.007467 -0.016666)
 42:   1319.97   0.010717   54.16  0.002534  ( 0.038290  0.032220 -0.005419)
 43:   1343.70   0.001186    5.99  0.000275  (-0.009138  0.002113  0.013688)
 44:   1364.30   0.020904  105.64  0.004781  ( 0.024872 -0.064461 -0.002747)
 45:   1365.27   0.002320   11.73  0.000530  ( 0.005253  0.022341  0.001901)
 46:   1413.81   0.018692   94.46  0.004126  ( 0.037140 -0.029639 -0.043221)
 47:   1417.50   0.019002   96.03  0.004183  (-0.048103  0.041899 -0.010668)
 48:   1449.33   0.000164    0.83  0.000035  (-0.004742 -0.003511  0.000730)
 49:   1510.31   0.000996    5.03  0.000206  (-0.012561 -0.006524 -0.002317)
 50:   1760.12   0.085724  433.22  0.015199  (-0.046828  0.113834  0.006899)
 51:   1812.27   0.044835  226.58  0.007720  (-0.071679  0.047282  0.018624)
 52:   2933.35   0.010929   55.23  0.001163  ( 0.014410 -0.011820  0.028553)
 53:   2973.43   0.001037    5.24  0.000109  ( 0.004740  0.005080 -0.007779)
 54:   2979.45   0.002399   12.12  0.000251  (-0.006581 -0.000264  0.014418)
 55:   2995.67   0.015964   80.68  0.001663  (-0.010392  0.031107  0.024237)
 56:   3664.43   0.014845   75.02  0.001264  ( 0.022852 -0.026674 -0.005519)
 57:   3722.56   0.003244   16.39  0.000272  ( 0.004308 -0.011868 -0.010606)
 58:   3734.51   0.011581   58.52  0.000968  (-0.023652  0.020206  0.000089)
 59:   3768.19   0.005628   28.44  0.000466  (-0.019639 -0.008952 -0.000477)

* The epsilon (eps) is given for a Dirac delta lineshape.
** The dipole moment derivative (T) already includes vibrational overlap.

The first frequency considered to be a vibration is 6
The total number of vibrations considered is 54


--------------------------
THERMOCHEMISTRY AT 298.15K
--------------------------

Temperature         ...   298.15 K
Pressure            ...     1.00 atm
Total Mass          ...   176.12 AMU
Quasi RRHO          ...     True
Cut-Off Frequency   ...     1.00 cm^-1

Throughout the following assumptions are being made:
  (1) The electronic state is orbitally nondegenerate
  (2) There are no thermally accessible electronically excited states
  (3) Hindered rotations indicated by low frequency modes are not
      treated as such but are treated as vibrations and this may
      cause some error
  (4) All equations used are the standard statistical mechanics
      equations for an ideal gas
  (5) All vibrations are strictly harmonic

freq.      44.69  E(vib)   ...       0.53 
freq.      64.57  E(vib)   ...       0.50 
freq.      97.19  E(vib)   ...       0.46 
freq.     123.86  E(vib)   ...       0.43 
freq.     142.36  E(vib)   ...       0.41 
freq.     190.83  E(vib)   ...       0.36 
freq.     241.31  E(vib)   ...       0.31 
freq.     242.86  E(vib)   ...       0.31 
freq.     254.31  E(vib)   ...       0.30 
freq.     274.81  E(vib)   ...       0.28 
freq.     305.16  E(vib)   ...       0.26 
freq.     322.59  E(vib)   ...       0.25 
freq.     335.37  E(vib)   ...       0.24 
freq.     370.51  E(vib)   ...       0.21 
freq.     441.11  E(vib)   ...       0.17 
freq.     478.07  E(vib)   ...       0.15 
freq.     543.92  E(vib)   ...       0.12 
freq.     570.15  E(vib)   ...       0.11 
freq.     638.76  E(vib)   ...       0.09 
freq.     680.95  E(vib)   ...       0.08 
freq.     723.62  E(vib)   ...       0.06 
freq.     741.01  E(vib)   ...       0.06 
freq.     813.78  E(vib)   ...       0.05 
freq.     870.06  E(vib)   ...       0.04 
freq.     920.51  E(vib)   ...       0.03 
freq.    1004.14  E(vib)   ...       0.02 
freq.    1031.31  E(vib)   ...       0.02 
freq.    1063.82  E(vib)   ...       0.02 
freq.    1075.52  E(vib)   ...       0.02 
freq.    1103.61  E(vib)   ...       0.02 
freq.    1119.04  E(vib)   ...       0.01 
freq.    1194.51  E(vib)   ...       0.01 
freq.    1210.00  E(vib)   ...       0.01 
freq.    1243.47  E(vib)   ...       0.01 
freq.    1285.44  E(vib)   ...       0.01 
freq.    1292.83  E(vib)   ...       0.01 
freq.    1319.97  E(vib)   ...       0.01 
freq.    1343.70  E(vib)   ...       0.01 
freq.    1364.30  E(vib)   ...       0.01 
freq.    1365.27  E(vib)   ...       0.01 
freq.    1413.81  E(vib)   ...       0.00 
freq.    1417.50  E(vib)   ...       0.00 
freq.    1449.33  E(vib)   ...       0.00 
freq.    1510.31  E(vib)   ...       0.00 
freq.    1760.12  E(vib)   ...       0.00 
freq.    1812.27  E(vib)   ...       0.00 
freq.    2933.35  E(vib)   ...       0.00 
freq.    2973.43  E(vib)   ...       0.00 
freq.    2979.45  E(vib)   ...       0.00 
freq.    2995.67  E(vib)   ...       0.00 
freq.    3664.43  E(vib)   ...       0.00 
freq.    3722.56  E(vib)   ...       0.00 
freq.    3734.51  E(vib)   ...       0.00 
freq.    3768.19  E(vib)   ...       0.00 

------------
INNER ENERGY
------------

The inner energy is: U= E(el) + E(ZPE) + E(vib) + E(rot) + E(trans)
    E(el)   - is the total energy from the electronic structure calculation
              = E(kin-el) + E(nuc-el) + E(el-el) + E(nuc-nuc)
    E(ZPE)  - the the zero temperature vibrational energy from the frequency calculation
    E(vib)  - the the finite temperature correction to E(ZPE) due to population
              of excited vibrational states
    E(rot)  - is the rotational thermal energy
    E(trans)- is the translational thermal energy

Summary of contributions to the inner energy U:
Electronic energy                ...   -684.48902455 Eh
Zero point energy                ...      0.14713367 Eh      92.33 kcal/mol
Thermal vibrational correction   ...      0.00960211 Eh       6.03 kcal/mol
Thermal rotational correction    ...      0.00141627 Eh       0.89 kcal/mol
Thermal translational correction ...      0.00141627 Eh       0.89 kcal/mol
-----------------------------------------------------------------------
Total thermal energy                   -684.32945623 Eh


Summary of corrections to the electronic energy:
(perhaps to be used in another calculation)
Total thermal correction                  0.01243465 Eh       7.80 kcal/mol
Non-thermal (ZPE) correction              0.14713367 Eh      92.33 kcal/mol
-----------------------------------------------------------------------
Total correction                          0.15956832 Eh     100.13 kcal/mol


--------
ENTHALPY
--------

The enthalpy is H = U + kB*T
                kB is Boltzmann's constant
Total thermal energy              ...   -684.32945623 Eh 
Thermal Enthalpy correction       ...      0.00094421 Eh       0.59 kcal/mol
-----------------------------------------------------------------------
Total Enthalpy                    ...   -684.32851202 Eh


Note: Only C1 symmetry has been detected, increase convergence thresholds 
      if your molecule has a higher symmetry. Symmetry factor of 1.0 is   
      used for the rotational entropy correction. 
 

Note: Rotational entropy computed according to Herzberg 
Infrared and Raman Spectra, Chapter V,1, Van Nostrand Reinhold, 1945 
Point Group:  C1, Symmetry Number:   1  
Rotational constants in cm-1:     0.055654     0.020454     0.016846 

Vibrational entropy computed according to the QRRHO of S. Grimme
Chem.Eur.J. 2012 18 9955 using a reference frequency of 100.0 cm-1


-------
ENTROPY
-------

The entropy contributions are T*S = T*(S(el)+S(vib)+S(rot)+S(trans))
     S(el)   - electronic entropy
     S(vib)  - vibrational entropy
     S(rot)  - rotational entropy
     S(trans)- translational entropy
The entropies will be listed as multiplied by the temperature to get
units of energy

Electronic entropy                ...      0.00000000 Eh      0.00 kcal/mol
Vibrational entropy               ...      0.01671039 Eh     10.49 kcal/mol
Rotational entropy                ...      0.01463858 Eh      9.19 kcal/mol
Translational entropy             ...      0.01967288 Eh     12.34 kcal/mol
-----------------------------------------------------------------------
Final entropy term                ...      0.05102185 Eh     32.02 kcal/mol

In case the symmetry of your molecule has not been determined correctly
or in case you have a reason to use a different symmetry number we print 
out the resulting rotational entropy values for sn=1,12:

 non-linear molecules -----------------------------------
|  sn= 1 | S(rot)=       0.01463858 Eh      9.19 kcal/mol|
|  sn= 2 | S(rot)=       0.01398412 Eh      8.78 kcal/mol|
|  sn= 3 | S(rot)=       0.01360129 Eh      8.53 kcal/mol|
|  sn= 4 | S(rot)=       0.01332967 Eh      8.36 kcal/mol|
|  sn= 5 | S(rot)=       0.01311898 Eh      8.23 kcal/mol|
|  sn= 6 | S(rot)=       0.01294683 Eh      8.12 kcal/mol|
|  sn= 7 | S(rot)=       0.01280129 Eh      8.03 kcal/mol|
|  sn= 8 | S(rot)=       0.01267521 Eh      7.95 kcal/mol|
|  sn= 9 | S(rot)=       0.01256400 Eh      7.88 kcal/mol|
|  sn=10 | S(rot)=       0.01246452 Eh      7.82 kcal/mol|
|  sn=11 | S(rot)=       0.01237453 Eh      7.77 kcal/mol|
|  sn=12 | S(rot)=       0.01229238 Eh      7.71 kcal/mol|
 linear molecules ---------------------------------------
|  Dinfh | S(rot)=       0.00918150 Eh      5.76 kcal/mol|
|  Cinfv | S(rot)=       0.00983595 Eh      6.17 kcal/mol|
 --------------------------------------------------------


-------------------
GIBBS FREE ENERGY
-------------------

The Gibbs free energy is G = H - T*S

Total enthalpy                    ...   -684.32851202 Eh 
Total entropy correction          ...     -0.05102185 Eh    -32.02 kcal/mol
-----------------------------------------------------------------------
Final Gibbs free energy         ...   -684.37953386 Eh

For completeness - the Gibbs free energy minus the electronic energy
G-E(el)                           ...      0.10949069 Eh     68.71 kcal/mol


Maximum memory used throughout the entire PROP-calculation: 65.8 MB

--------------------------------
SUGGESTED CITATIONS FOR THIS RUN
--------------------------------

Below you find a list of papers that are relevant to this ORCA run
We neither can nor want to force you to cite these papers, but we appreciate if you do
You receive ORCA, which is the product of decades of hard work by many enthusiastic individuals, for free
The only thing we kindly ask in return is that you cite our papers,
We deeply appreciate it, if you show your appreciation for ORCA by not just citing the generic ORCA reference.

Please note that relegating all ORCA citations to the supporting information does *not* help us.
SI sections are not indexed - citations you put there will not count into any citation statistics
But we need these citations in order to attract the funding resources that allow us to do what we are doing

Therefore, if you are a happy ORCA user, please consider citing a few of the papers listed below in the main body of your paper

In addition to the list printed below, the program has created the file m1_00_Vitamin_C-B97-3C-TZ.bibtex that contains the list in bibtex format
You can import this file easily into all common literature databanks and citation aid programs


List of essential papers. We consider these as the minimum necessary citations

  1. Neese,F.
     Software update: the ORCA program system, version 5.0
     WIRES Comput. Molec. Sci., 2022 12(1)e1606
     doi.org/10.1002/wcms.1606

List of papers to cite with high priority. The work reported in these papers was absolutely
necessary for this run to complete.
Our perspective: the developers of density functionals and basis sets usually get cited in chemistry papers
Good! But without the algorithms to do something with them, the functionals or basis sets would not do anything.
Hence, in our opinion, the algorithm design and method developments papers are equally worthy of getting cited

  1. Neese,F.
     An improvement of the resolution of the identity approximation for the formation of the Coulomb matrix
     J. Comp. Chem., 2003 24(14)1740-1747
     doi.org/10.1002/jcc.10318
  2. Bykov,D.; Petrenko,T.; Izsak,R.; Kossmann,S.; Becker,U.; Valeev,E.; Neese,F.
     Efficient implementation of the analytic second derivatives of Hartree-Fock and hybrid DFT energies: a detailed analysis of different approximations
     Molec. Phys., 2015 113 1961-1977
     doi.org/10.1080/00268976.2015.1025114
  3. Neese,F.
     The SHARK Integral Generation and Digestion System
     J. Comp. Chem., 2022  1-16
     doi.org/10.1002/jcc.26942
  4. Grimme,S.; Antony,J.; Ehrlich,S.; Krieg,H.
     A consistent and accurate ab initio parametrization of density functional dispersion correction (DFT-D) for the 94 elements H-Pu
     J. Chem. Phys., 2010 132 154104
     doi.org/10.1063/1.3382344
  5. Grimme,S.; Ehrlich,S.; Goerigk,L.
     Effect of the damping function in dispersion corrected density functional theory
     J. Comput. Chem., 2011 32(7)1456-1465
     doi.org/10.1002/jcc.21759

List of suggested additional citations. These are papers that are important in the 'surrounding' of 
of this run, or papers that preceded the highly important papers. If you like your results we are grateful for a citation.

  1. Neese,F.
     The ORCA program system
     WIRES Comput. Molec. Sci., 2012 2(1)73-78
     doi.org/10.1002/wcms.81
  2. Neese,F.
     Software update: the ORCA program system, version 4.0
     WIRES Comput. Molec. Sci., 2018 8(1)1-6
     doi.org/10.1002/wcms.1327
  3. Neese,F.; Wennmohs,F.; Becker,U.; Riplinger,C.
     The ORCA quantum chemistry program package
     J. Chem. Phys., 2020 152 Art. No. L224108
     doi.org/10.1063/5.0004608

List of optional additional citations

  1. Neese,F.
     Approximate second-order SCF convergence for spin unrestricted wavefunctions
     Chem. Phys. Lett., 2000 325(1-3)93-98
     doi.org/10.1016/s0009-2614(00)00662-x

Timings for individual modules:

Sum of individual times          ...      203.639 sec (=   3.394 min)
Startup calculation              ...       39.789 sec (=   0.663 min)  19.5 %
SCF iterations                   ...       57.701 sec (=   0.962 min)  28.3 %
Property integrals               ...       34.428 sec (=   0.574 min)  16.9 %
SCF Response                     ...       24.048 sec (=   0.401 min)  11.8 %
Property calculations            ...       14.656 sec (=   0.244 min)   7.2 %
SCF Gradient evaluation          ...       32.079 sec (=   0.535 min)  15.8 %
Geometry relaxation              ...        0.938 sec (=   0.016 min)   0.5 %
                             ****ORCA TERMINATED NORMALLY****
TOTAL RUN TIME: 0 days 0 hours 3 minutes 33 seconds 230 msec
