
                                 *****************
                                 * O   R   C   A *
                                 *****************

                                            #,                                       
                                            ###                                      
                                            ####                                     
                                            #####                                    
                                            ######                                   
                                           ########,                                 
                                     ,,################,,,,,                         
                               ,,#################################,,                 
                          ,,##########################################,,             
                       ,#########################################, ''#####,          
                    ,#############################################,,   '####,        
                  ,##################################################,,,,####,       
                ,###########''''           ''''###############################       
              ,#####''   ,,,,##########,,,,          '''####'''          '####       
            ,##' ,,,,###########################,,,                        '##       
           ' ,,###''''                  '''############,,,                           
         ,,##''                                '''############,,,,        ,,,,,,###''
      ,#''                                            '''#######################'''  
     '                                                          ''''####''''         
             ,#######,   #######,   ,#######,      ##                                
            ,#'     '#,  ##    ##  ,#'     '#,    #''#        ,####,   ,####,        
            ##       ##  ##   ,#'  ##            #'  '#       #'       #'  '#        
            ##       ##  #######   ##           ,######,      #####,   #    #        
            '#,     ,#'  ##    ##  '#,     ,#' ,#      #,     #,   #   #,  ,#        
             '#######'   ##     ##  '#######'  #'      '#     '####' # '####'        



                #########################################################
                #                        -***-                          #
                #          Department of theory and spectroscopy        #
                #                                                       #
                #                      Frank Neese                      #
                #                                                       #
                #     Directorship, Architecture, Infrastructure        #
                #                    SHARK, DRIVERS                     #
                #        Core code/Algorithms in most modules           #
                #                                                       #
                #        Max Planck Institute fuer Kohlenforschung      #
                #                Kaiser Wilhelm Platz 1                 #
                #                 D-45470 Muelheim/Ruhr                 #
                #                      Germany                          #
                #                                                       #
                #                  All rights reserved                  #
                #                        -***-                          #
                #########################################################


                         Program Version 6.0.1  -  RELEASE   -


 With contributions from (in alphabetic order):
[Max-Planck-Institut fuer Kohlenforschung]                               
  Daniel Aravena         : Magnetic Suceptibility                        
  Michael Atanasov       : Ab Initio Ligand Field Theory (pilot matlab implementation)
  Alexander A. Auer      : GIAO ZORA, VPT2 properties, NMR spectrum      
  Ute Becker             : All parallelization in ORCA, NUMFREQ, NUMCALC 
  Giovanni Bistoni       : ED, misc. LED, open-shell LED, HFLD           
  Martin Brehm           : Molecular dynamics                            
  Dmytro Bykov           : pre 5.0 version of the SCF Hessian            
  Marcos Casanova-Páez   : Triplet and SCS-CIS(D). UHF-(DLPNO)-IP/EA/STEOM-CCSD. UHF-CVS-IP/STEOM-CCSD   
  Vijay G. Chilkuri      : MRCI spin determinant printing, contributions to CSF-ICE 
  Pauline Colinet        : FMM embedding                                 
  Dipayan Datta          : RHF DLPNO-CCSD density                        
  Achintya Kumar Dutta   : EOM-CC, STEOM-CC                              
  Nicolas Foglia         : Exact transition moments, OPA infrastructure, MCD improvements    
  Dmitry Ganyushin       : Spin-Orbit,Spin-Spin,Magnetic field MRCI      
  Miquel Garcia-Rates    : C-PCM and meta-GGA Hessian, CCSD/C-PCM, Gaussian charge scheme 
  Tiago L. C. Gouveia    : GS-ROHF, GS-ROCIS                             
  Yang Guo               : DLPNO-NEVPT2, F12-NEVPT2, CIM, IAO-localization        
  Andreas Hansen         : Spin unrestricted coupled pair/coupled cluster methods 
  Ingolf Harden          : AUTO-CI MPn and infrastructure                
  Benjamin Helmich-Paris : MC-RPA, TRAH-(SCF,CASSCF), AVAS, COSX integrals, SCF dyn. polar. 
  Lee Huntington         : MR-EOM, pCC                                   
  Robert Izsak           : Overlap fitted RIJCOSX, COSX-SCS-MP3, EOM     
  Riya Kayal             : Wick's Theorem for AUTO-CI, AUTO-CI UHF-CCSDT 
  Emily Kempfer          : AUTO-CI, RHF CISDT and CCSDT                  
  Christian Kollmar      : KDIIS, OOCD, Brueckner-CCSD(T), CCSD density, CASPT2, CASPT2-K, improved NEVPT2 
  Axel Koslowski         : Symmetry handling                             
  Simone Kossmann        : meta-GGA functionals, TD-DFT gradient, OOMP2, (MP2 Hessian; deprecated post 5.0) 
  Lucas Lang             : DCDCAS                                        
  Marvin Lechner         : AUTO-CI (C++ implementation), FIC-MRCC        
  Spencer Leger          : CASSCF response                               
  Dagmar Lenk            : GEPOL surface, SMD, ORCA-2-JSON               
  Dimitrios Liakos       : Extrapolation schemes; Compound Job, initial MDCI parallelization 
  Dimitrios Manganas     : Further ROCIS development; embedding schemes. LFT, Crystal Embedding 
  Dimitrios Pantazis     : SARC Basis sets                               
  Anastasios Papadopoulos: AUTO-CI, single reference methods and gradients 
  Taras Petrenko         : pre 6.0 DFT Hessian and TD-DFT gradient, (ASA, deprecated), ECA, 1-Electron XAS/XES, NRVS 
  Peter Pinski           : DLPNO-MP2, DLPNO-MP2 Gradient                 
  Christoph Reimann      : Effective Core Potentials                     
  Marius Retegan         : Local ZFS, SOC                                
  Christoph Riplinger    : Optimizer, TS searches, QM/MM, DLPNO-CCSD(T), (RO)-DLPNO pert. Triples 
  Michael Roemelt        : Original ROCIS implementation                 
  Masaaki Saitow         : Open-shell DLPNO-CCSD energy and density      
  Barbara Sandhoefer     : DKH picture change effects                    
  Kantharuban Sivalingam : CASSCF convergence/infrastructure, NEVPT2 and variants, FIC-MRCI 
  Bernardo de Souza      : ESD, SOC TD-DFT                               
  Georgi L. Stoychev     : AutoAux, RI-MP2 NMR, DLPNO-MP2 response, X2C  
  Van Anh Tran           : RI-MP2 g-tensors                              
  Willem Van den Heuvel  : Paramagnetic NMR                              
  Zikuan Wang            : NOTCH, Electric field optimization            
  Frank Wennmohs         : Technical directorship and infrastructure     
  Hang Xu                : AUTO-CI-Response properties                   
                                                                         
[FACCTs GmbH]                                                            
  Markus Bursch, Miquel Garcia-Rates, Christoph Riplinger, Bernardo de Souza, Georgi L. Stoychev 
                                                                 
  APM, Basis sets (HGBS, AHGBS, def-TZVP (Ac-Lr), def2-XVPD (La-Lu)), CI-OPT, improved COSX, DLPNO-Multilevel,           
  DOCKER, DRACO, updates on ESD, GOAT, IRC, LR-CPCM, MBIS, meta-GGA TD-DFT gradient, ML-optimized integration grids, 
  MM, NACMEs, nearIR, NEB, NEB-TS, NL-DFT gradient (VV10), 2- and 3-layer-ONIOM, interface openCOSMO-RS, QMMM,   
  Crystal-QMMM, SF, symmetry and pop. for TD-DFT, r2SCAN hybrids, SOLVATOR                                   
                                                                         
[Other institutions]                                                     
  V. Asgeirsson          : NEB                                           
  Christoph Bannwarth    : sTDA-DFT, sTD-DFT, PBEh-3c, B97-3c, D3        
  Sebastian Ehlert       : rSCAN, r2SCAN, r2SCAN-3c, D4, dhf basis sets  
  Marvin Friede          : D4 for Fr, Ra, Ac-Lr                          
  Lars Goerigk           : TD-DFT with DH, B97 family of functionals     
  Stefan Grimme          : VdW corrections, initial TS optimization, DFT functionals, gCP, sTDA/sTD-DF 
  Waldemar Hujo          : DFT-NL                                        
  H. Jonsson             : NEB                                           
  Holger Kruse           : gCP                                           
  Marcel Mueller         : wB97X-3c, vDZP basis set                      
  Hagen Neugebauer       : wr2SCAN                                       
  Tobias Risthaus        : range-separated hybrid DFT                    
  Lukas Wittmann         : regularized MP2, r2SCAN double-hybrids, wr2SCAN        
                                                                         
We gratefully acknowledge several colleagues who have allowed us to      
interface, adapt or use parts of their codes:                            
  Ed Valeev, F. Pavosevic, A. Kumar             : LibInt (2-el integral package), F12 methods 
  Garnet Chan, S. Sharma, J. Yang, R. Olivares  : DMRG                   
  Ulf Ekstrom                                   : XCFun DFT Library      
  Mihaly Kallay                                 : mrcc  (arbitrary order and MRCC methods)
  Frank Weinhold                                : gennbo (NPA and NBO analysis)           
  Simon Mueller                                 : openCOSMO-RS                            
  Christopher J. Cramer and Donald G. Truhlar   : smd solvation model                     
  S Lehtola, MJT Oliveira, MAL Marques          : LibXC Library                           
  Liviu Ungur et al                             : ANISO software                          


 Your calculation uses the libint2 library for the computation of 2-el integrals
 For citations please refer to: http://libint.valeyev.net

 Your ORCA version has been built with support for libXC version: 6.2.2
 For citations please refer to: https://libxc.gitlab.io

 This ORCA versions uses:
   CBLAS   interface :  Fast vector & matrix operations
   LAPACKE interface :  Fast linear algebra routines
   SCALAPACK package :  Parallel linear algebra routines
   Shared memory     :  Shared parallel matrices
   BLAS/LAPACK       :  OpenBLAS 0.3.27  USE64BITINT DYNAMIC_ARCH NO_AFFINITY Zen SINGLE_THREADED
        Core in use  :  Zen
   Copyright (c) 2011-2014, The OpenBLAS Project


NOTE: MaxCore=6000 MB was set to SCF,MP2,MDCI,CIPSI,MRCI and CIS
      => If you want to overwrite this, your respective input block should be placed after the MaxCore statement
Your calculation utilizes the atom-pairwise dispersion correction
with the Becke-Johnson damping scheme (D3BJ)


Your calculation employs the composite approach B97-3c by Grimme and coworkers.
For the correct reference, please check the publication list of the Grimme group:
http://www.thch.uni-bonn.de/tc/index.php?section=publikationen&subsection=grimme#2017
   

XCFun DFT library Copyright 2009-2010 Ulf Ekstrom and contributors.
See http://admol.org/xcfun for more information.
This is free software; see the source code for copying conditions.
There is ABSOLUTELY NO WARRANTY; not even for MERCHANTABILITY or FITNESS FOR A PARTICULAR PURPOSE.
For details see the documentation.
Scientific users of this library should cite U. Ekstrom, L. Visscher, R. Bast, A. J. Thorvaldsen and K. Ruud;
J.Chem.Theor.Comp. 2010, DOI: 10.1021/ct100117s
XCFun Version 0.99 

================================================================================

----- Orbital basis set information -----
Your calculation utilizes the basis: def2-mTZVP
----- AuxJ basis set information -----
Your calculation utilizes the basis: def2-mTZVP/J
================================================================================
                                        WARNINGS
                       Please study these warnings very carefully!
================================================================================


WARNING: Geometry Optimization
  ===> : Switching off AutoStart
         For restart on a previous wavefunction, please use MOREAD

================================================================================
                                       INPUT FILE
================================================================================
NAME = m1_00_Vitamin_B3-B97-3C-TZ.inp
|  1> %pal nprocs 16 end
|  2> %MaxCore 6000
|  3> # put your comments here
|  4> ! B97-3C  OPT  FREQ DEFGRID3 NOTRAH CHELPG
|  5> %scf MaxIter 800 end
|  6> %output
|  7> Print [P_Hirshfeld] 1
|  8> end
|  9> %geom
| 10> MaxIter 3000
| 11>  TolE 1e-6 #TolE 5e-6 Energy change (a.u.)
| 12>  TolRMSG 3e-5 #TolRMSG 1e-4 RMS gradient (a.u.)
| 13>  TolMaxG 1e-4 #TolMaxG 3e-3 Max. element of gradient (a.u.)
| 14>  TolRMSD 2e-3 #TolRMSD 2e-3 RMS displacement (a.u.)
| 15>  TolMaxD 4e-3 #TolMaxD 4e-3 Max. displacement (a.u.)
| 16> end
| 17> * xyz 0 1
| 18>  O     -2.282700000     -1.202900000     -0.000700000
| 19>  O     -2.470400000      1.062400000      0.000200000
| 20>  N      1.757000000     -1.216500000      0.000200000
| 21>  C     -0.303600000      0.048100000      0.000200000
| 22>  C      0.417500000      1.236900000     -0.000100000
| 23>  C      0.407100000     -1.141400000      0.000300000
| 24>  C      1.807500000      1.200600000     -0.000300000
| 25>  C      2.423700000     -0.040400000     -0.000100000
| 26>  C     -1.756000000      0.053100000      0.000300000
| 27>  H     -0.085900000      2.199900000     -0.000200000
| 28>  H     -0.075200000     -2.113700000      0.000600000
| 29>  H      2.390200000      2.114700000     -0.000600000
| 30>  H      3.505600000     -0.123200000     -0.000200000
| 31>  H     -3.263600000     -1.187000000     -0.001100000
| 32> *
| 33> 
| 34> 
| 35> 
| 36> 
| 37>                          ****END OF INPUT****
================================================================================

                       *****************************
                       * Geometry Optimization Run *
                       *****************************

Geometry optimization settings:
Update method            Update   .... BFGS
Choice of coordinates    CoordSys .... (2022) Redundant Internals
Initial Hessian          InHess   .... Almloef's Model
Max. no of cycles        MaxIter  .... 3000

Convergence Tolerances:
Energy Change            TolE     ....  1.0000e-06 Eh
Max. Gradient            TolMAXG  ....  1.0000e-04 Eh/bohr
RMS Gradient             TolRMSG  ....  3.0000e-05 Eh/bohr
Max. Displacement        TolMAXD  ....  4.0000e-03 bohr
RMS Displacement         TolRMSD  ....  2.0000e-03 bohr
Strict Convergence                .... False

------------------------------------------------------------------------------
                        ORCA OPTIMIZATION COORDINATE SETUP
------------------------------------------------------------------------------

The optimization will be done in redundant internal coordinates (2022)
Making redundant internal coordinates   ...  (2022 redundants) done
Evaluating the initial hessian          ...  (Almloef) done
Evaluating the coordinates              ...  done
Calculating the B-matrix                .... done
Calculating the G-matrix                .... done
Diagonalizing the G-matrix              .... done
The first mode is                       ....   24
The number of degrees of freedom        ....   36

    -----------------------------------------------------------------
                    Redundant Internal Coordinates


    -----------------------------------------------------------------
         Definition                    Initial Value    Approx d2E/dq
    -----------------------------------------------------------------
      1. B(C   4,C   3)                  1.3904         0.623864   
      2. B(C   5,N   2)                  1.3520         0.643461   
      3. B(C   5,C   3)                  1.3856         0.634879   
      4. B(C   6,C   4)                  1.3905         0.623710   
      5. B(C   7,C   6)                  1.3856         0.635065   
      6. B(C   7,N   2)                  1.3519         0.643609   
      7. B(C   8,O   0)                  1.3620         0.620301   
      8. B(C   8,C   3)                  1.4524         0.496786   
      9. B(C   8,O   1)                  1.2365         0.983324   
     10. B(H   9,C   4)                  1.0866         0.364576   
     11. B(H  10,C   5)                  1.0853         0.366307   
     12. B(H  11,C   6)                  1.0840         0.368087   
     13. B(H  12,C   7)                  1.0851         0.366690   
     14. B(H  13,O   0)                  0.9810         0.481301   
     15. A(C   8,O   0,H  13)          111.8220         0.365274   
     16. A(C   5,N   2,C   7)          116.3635         0.434183   
     17. A(C   4,C   3,C   5)          117.9025         0.436411   
     18. A(C   5,C   3,C   8)          121.0546         0.418955   
     19. A(C   4,C   3,C   8)          121.0428         0.417650   
     20. A(C   3,C   4,H   9)          121.1620         0.354020   
     21. A(C   3,C   4,C   6)          119.7441         0.435018   
     22. A(C   6,C   4,H   9)          119.0939         0.354005   
     23. A(C   3,C   5,H  10)          122.7593         0.355358   
     24. A(N   2,C   5,H  10)          113.1990         0.353970   
     25. A(N   2,C   5,C   3)          124.0417         0.435973   
     26. A(C   4,C   6,C   7)          117.9020         0.436415   
     27. A(C   7,C   6,H  11)          121.0782         0.355668   
     28. A(C   4,C   6,H  11)          121.0198         0.354581   
     29. A(N   2,C   7,C   6)          124.0462         0.436014   
     30. A(C   6,C   7,H  12)          120.7824         0.355438   
     31. A(N   2,C   7,H  12)          115.1713         0.354046   
     32. A(O   0,C   8,O   1)          121.9579         0.465799   
     33. A(O   1,C   8,C   3)          125.4888         0.450303   
     34. A(O   0,C   8,C   3)          112.5533         0.414524   
     35. D(H   9,C   4,C   3,C   5)    179.9994         0.026952   
     36. D(C   6,C   4,C   3,C   8)   -179.9947         0.026952   
     37. D(H   9,C   4,C   3,C   8)      0.0042         0.026952   
     38. D(C   6,C   4,C   3,C   5)      0.0006         0.026952   
     39. D(N   2,C   5,C   3,C   8)    179.9992         0.027975   
     40. D(N   2,C   5,C   3,C   4)      0.0039         0.027975   
     41. D(C   3,C   5,N   2,C   7)     -0.0042         0.030550   
     42. D(H  10,C   5,N   2,C   7)   -179.9967         0.030550   
     43. D(H  10,C   5,C   3,C   4)    179.9956         0.027975   
     44. D(H  10,C   5,C   3,C   8)     -0.0091         0.027975   
     45. D(H  11,C   6,C   4,H   9)     -0.0029         0.026938   
     46. D(C   7,C   6,C   4,H   9)    179.9969         0.026938   
     47. D(C   7,C   6,C   4,C   3)     -0.0042         0.026938   
     48. D(H  11,C   6,C   4,C   3)    179.9960         0.026938   
     49. D(C   6,C   7,N   2,C   5)      0.0002         0.030565   
     50. D(H  12,C   7,C   6,H  11)      0.0025         0.027993   
     51. D(H  12,C   7,C   6,C   4)   -179.9974         0.027993   
     52. D(N   2,C   7,C   6,H  11)   -179.9962         0.027993   
     53. D(N   2,C   7,C   6,C   4)      0.0039         0.027993   
     54. D(H  12,C   7,N   2,C   5)   -179.9986         0.030565   
     55. D(O   1,C   8,C   3,C   5)   -179.9987         0.016808   
     56. D(O   1,C   8,C   3,C   4)     -0.0036         0.016808   
     57. D(O   0,C   8,C   3,C   5)     -0.0544         0.016808   
     58. D(O   0,C   8,C   3,C   4)    179.9408         0.016808   
     59. D(C   3,C   8,O   0,H  13)   -179.9699         0.028232   
     60. D(O   1,C   8,O   0,H  13)     -0.0234         0.028232   
    -----------------------------------------------------------------

Number of atoms                         .... 14
Number of degrees of freedom            .... 60


         *************************************************************
         *                GEOMETRY OPTIMIZATION CYCLE   1            *
         *************************************************************
---------------------------------
CARTESIAN COORDINATES (ANGSTROEM)
---------------------------------
  O     -2.282700   -1.202900   -0.000700
  O     -2.470400    1.062400    0.000200
  N      1.757000   -1.216500    0.000200
  C     -0.303600    0.048100    0.000200
  C      0.417500    1.236900   -0.000100
  C      0.407100   -1.141400    0.000300
  C      1.807500    1.200600   -0.000300
  C      2.423700   -0.040400   -0.000100
  C     -1.756000    0.053100    0.000300
  H     -0.085900    2.199900   -0.000200
  H     -0.075200   -2.113700    0.000600
  H      2.390200    2.114700   -0.000600
  H      3.505600   -0.123200   -0.000200
  H     -3.263600   -1.187000   -0.001100

----------------------------
CARTESIAN COORDINATES (A.U.)
----------------------------
  NO LB      ZA    FRAG     MASS         X           Y           Z
   0 O     8.0000    0    15.999   -4.313678   -2.273152   -0.001323
   1 O     8.0000    0    15.999   -4.668379    2.007645    0.000378
   2 N     7.0000    0    14.007    3.320249   -2.298852    0.000378
   3 C     6.0000    0    12.011   -0.573721    0.090896    0.000378
   4 C     6.0000    0    12.011    0.788961    2.337402   -0.000189
   5 C     6.0000    0    12.011    0.769308   -2.156933    0.000567
   6 C     6.0000    0    12.011    3.415680    2.268805   -0.000567
   7 C     6.0000    0    12.011    4.580129   -0.076345   -0.000189
   8 C     6.0000    0    12.011   -3.318359    0.100344    0.000567
   9 H     1.0000    0     1.008   -0.162327    4.157209   -0.000378
  10 H     1.0000    0     1.008   -0.142107   -3.994314    0.001134
  11 H     1.0000    0     1.008    4.516823    3.996204   -0.001134
  12 H     1.0000    0     1.008    6.624624   -0.232814   -0.000378
  13 H     1.0000    0     1.008   -6.167310   -2.243105   -0.002079

--------------------------------
INTERNAL COORDINATES (ANGSTROEM)
--------------------------------
 O      0   0   0     0.000000000000     0.00000000     0.00000000
 O      1   0   0     2.273063173341     0.00000000     0.00000000
 N      1   2   0     4.039722992979    94.92952328     0.00000000
 C      1   2   3     2.341332658979    62.43942729     0.00000000
 C      4   1   2     1.390406681514   153.53726525   359.91391688
 C      3   1   2     1.351987437072     2.99145439     0.30160040
 C      5   4   1     1.390473922805   119.74413678   180.07668770
 C      3   1   2     1.351924624378   119.35485921   359.95436243
 C      2   1   3     1.236549174113    30.55489353   359.96722565
 H      5   4   1     1.086637276187   121.16198602     0.07557382
 H      6   3   8     1.085348179157   113.19896906   180.00332422
 H      7   5   4     1.084028685045   121.01983913   179.99598247
 H      8   3   1     1.085063804576   115.17132407   180.02165550
 H      1   2   3     0.981028939430    84.33471129   180.01095783

---------------------------
INTERNAL COORDINATES (A.U.)
---------------------------
 O      0   0   0     0.000000000000     0.00000000     0.00000000
 O      1   0   0     4.295466882717     0.00000000     0.00000000
 N      1   2   0     7.633970113634    94.92952328     0.00000000
 C      1   2   3     4.424477513875    62.43942729     0.00000000
 C      4   1   2     2.627487842837   153.53726525   359.91391688
 C      3   1   2     2.554885992568     2.99145439     0.30160040
 C      5   4   1     2.627614910460   119.74413678   180.07668770
 C      3   1   2     2.554767293779   119.35485921   359.95436243
 C      2   1   3     2.336739290200    30.55489353   359.96722565
 H      5   4   1     2.053446858904   121.16198602     0.07557382
 H      6   3   8     2.051010818557   113.19896906   180.00332422
 H      7   5   4     2.048517336049   121.01983913   179.99598247
 H      8   3   1     2.050473428478   115.17132407   180.02165550
 H      1   2   3     1.853876024975    84.33471129   180.01095783

---------------------
BASIS SET INFORMATION
---------------------
There are 4 groups of distinct atoms

 Group   1 Type O   : 11s6p2d contracted to 5s3p2d pattern {62111/411/11}
 Group   2 Type N   : 11s6p1d contracted to 5s3p1d pattern {62111/411/1}
 Group   3 Type C   : 11s6p1d contracted to 5s3p1d pattern {62111/411/1}
 Group   4 Type H   : 5s contracted to 3s pattern {311}

Atom   0O    basis set group =>   1
Atom   1O    basis set group =>   1
Atom   2N    basis set group =>   2
Atom   3C    basis set group =>   3
Atom   4C    basis set group =>   3
Atom   5C    basis set group =>   3
Atom   6C    basis set group =>   3
Atom   7C    basis set group =>   3
Atom   8C    basis set group =>   3
Atom   9H    basis set group =>   4
Atom  10H    basis set group =>   4
Atom  11H    basis set group =>   4
Atom  12H    basis set group =>   4
Atom  13H    basis set group =>   4
---------------------------------
AUXILIARY/J BASIS SET INFORMATION
---------------------------------
There are 4 groups of distinct atoms

 Group   1 Type O   : 8s3p3d contracted to 6s3p3d pattern {311111/111/111}
 Group   2 Type N   : 8s3p3d contracted to 6s3p3d pattern {311111/111/111}
 Group   3 Type C   : 8s3p3d contracted to 6s3p3d pattern {311111/111/111}
 Group   4 Type H   : 5s2p contracted to 3s1p pattern {311/2}

Atom   0O    basis set group =>   1
Atom   1O    basis set group =>   1
Atom   2N    basis set group =>   2
Atom   3C    basis set group =>   3
Atom   4C    basis set group =>   3
Atom   5C    basis set group =>   3
Atom   6C    basis set group =>   3
Atom   7C    basis set group =>   3
Atom   8C    basis set group =>   3
Atom   9H    basis set group =>   4
Atom  10H    basis set group =>   4
Atom  11H    basis set group =>   4
Atom  12H    basis set group =>   4
Atom  13H    basis set group =>   4


           ************************************************************
           *        Program running with 16 parallel MPI-processes    *
           *              working on a common directory               *
           ************************************************************
------------------------------------------------------------------------------
                             ORCA STARTUP CALCULATIONS
                           -- RI-GTO INTEGRALS CHOSEN --
------------------------------------------------------------------------------
------------------------------------------------------------------------------
                   ___                                                        
                  /   \      - P O W E R E D   B Y -                         
                 /     \                                                     
                 |  |  |   _    _      __       _____    __    __             
                 |  |  |  | |  | |    /  \     |  _  \  |  |  /  |          
                  \  \/   | |  | |   /    \    | | | |  |  | /  /          
                 / \  \   | |__| |  /  /\  \   | |_| |  |  |/  /          
                |  |  |   |  __  | /  /__\  \  |    /   |      \           
                |  |  |   | |  | | |   __   |  |    \   |  |\   \          
                \     /   | |  | | |  |  |  |  | |\  \  |  | \   \       
                 \___/    |_|  |_| |__|  |__|  |_| \__\ |__|  \__/        
                                                                              
                      - O R C A' S   B I G   F R I E N D -                    
                                      &                                       
                       - I N T E G R A L  F E E D E R -                       
                                                                              
 v1 FN, 2020, v2 2021, v3 2022-2024                                           
------------------------------------------------------------------------------


----------------------
SHARK INTEGRAL PACKAGE
----------------------

Number of atoms                             ...     14
Number of basis functions                   ...    196
Number of shells                            ...     98
Maximum angular momentum                    ...      2
Integral batch strategy                     ... SHARK/LIBINT Hybrid
RI-J (if used) integral strategy            ... SPLIT-RIJ (Revised 2003 algorithm where possible)
Printlevel                                  ...      1
Contraction scheme used                     ... SEGMENTED contraction
Prescreening option                         ... SCHWARTZ
   Thresh                                   ... 2.500e-11
   Tcut                                     ... 2.500e-12
   Tpresel                                  ... 2.500e-12 
Coulomb Range Separation                    ... NOT USED
Exchange Range Separation                   ... NOT USED
Multipole approximations                    ... NOT USED
Finite Nucleus Model                        ... NOT USED
CABS basis                                  ... NOT available
Auxiliary Coulomb fitting basis             ... AVAILABLE
   # of basis functions in Aux-J            ...    300
   # of shells in Aux-J                     ...    128
   Maximum angular momentum in Aux-J        ...      2
Auxiliary J/K fitting basis                 ... NOT available
Auxiliary Correlation fitting basis         ... NOT available
Auxiliary 'external' fitting basis          ... NOT available

Checking pre-screening integrals            ... done (  0.0 sec) Dimension = 98
Check shell pair data                       ... done (  0.0 sec)
Shell pair information
Shell pair cut-off parameter TPreSel        ...   2.5e-12
Total number of shell pairs                 ...      4851
Shell pairs after pre-screening             ...      4397
Total number of primitive shell pairs       ...     18168
Primitive shell pairs kept                  ...     11696
          la=0 lb=0:   1553 shell pairs
          la=1 lb=0:   1526 shell pairs
          la=1 lb=1:    371 shell pairs
          la=2 lb=0:    597 shell pairs
          la=2 lb=1:    288 shell pairs
          la=2 lb=2:     62 shell pairs

Calculating one electron integrals          ... done (  0.5 sec)
Calculating RI/J V-Matrix + Cholesky decomp.... done (  0.4 sec)
Calculating Nuclear repulsion               ... done (  0.0 sec) ENN=    408.214957052642 Eh

Diagonalization of the overlap matrix:
Smallest eigenvalue                        ... 4.720e-05
Time for diagonalization                   ...    0.374 sec
Threshold for overlap eigenvalues          ... 1.000e-07
Number of eigenvalues below threshold      ... 0
Time for construction of square roots      ...    0.001 sec
Total time needed                          ...    0.376 sec

-------------------
DFT GRID GENERATION
-------------------

General Integration Accuracy     IntAcc      ... 4.959
Radial Grid Type                 RadialGrid  ... OptM3 with GC (2021)
Angular Grid (max. ang.)         AngularGrid ... 6 (Lebedev-590)
Angular grid pruning method      GridPruning ... 4 (adaptive)
Weight generation scheme         WeightScheme... mBecke (2022)
Basis function cutoff            BFCut       ... 1.0000e-11
Integration weight cutoff        WCut        ... 1.0000e-14
Partially contracted basis set               ... off
Rotationally invariant grid construction     ... off
Angular grids for H and He will be reduced by one unit
Diffuse basis detected: some atoms will have their outermost
                        angular grid increased by 1.

Total number of grid points                  ...   173835
Total number of batches                      ...     2722
Average number of points per batch           ...       63
Average number of grid points per atom       ...    12417
Initializing property integral containers    ... done (  0.1 sec)

SHARK setup successfully completed in   6.2 seconds

Maximum memory used throughout the entire STARTUP-calculation: 36.6 MB


           ************************************************************
           *        Program running with 16 parallel MPI-processes    *
           *              working on a common directory               *
           ************************************************************
-------------------------------------------------------------------------------
                                 ORCA GUESS
                   Start orbitals & Density for SCF / CASSCF
-------------------------------------------------------------------------------

------------
SCF SETTINGS
------------
Hamiltonian:
 Density Functional     Method          .... DFT(GTOs)
 Exchange Functional    Exchange        .... B973C
 Correlation Functional Correlation     .... B973C
 Gradients option       PostSCFGGA      .... off
 RI-approximation to the Coulomb term is turned on
   Number of AuxJ basis functions       .... 300


General Settings:
 Integral files         IntName         .... m1_00_Vitamin_B3-B97-3C-TZ
 Hartree-Fock type      HFTyp           .... RHF
 Total Charge           Charge          ....    0
 Multiplicity           Mult            ....    1
 Number of Electrons    NEL             ....   64
 Basis Dimension        Dim             ....  196
 Nuclear Repulsion      ENuc            ....    408.2149570526 Eh

Convergence Acceleration:
 AO-DIIS                CNVDIIS         .... on
   Start iteration      DIISMaxIt       ....    12
   Startup error        DIISStart       ....  0.200000
   # of expansion vecs  DIISMaxEq       ....     5
   Bias factor          DIISBfac        ....   1.050
   Max. coefficient     DIISMaxC        ....  10.000
 MO-DIIS                CNVKDIIS        .... off
 Trust-Rad. Augm. Hess. CNVTRAH         .... off
 SOSCF                  CNVSOSCF        .... on
   Start iteration      SOSCFMaxIt      ....   150
   Startup grad/error   SOSCFStart      ....  0.003300
   Hessian update       SOSCFHessUp     .... L-BFGS
 Level Shifting         CNVShift        .... on
   Level shift para.    LevelShift      ....    0.2500
   Turn off err/grad.   ShiftErr        ....    0.0010
 Zerner damping         CNVZerner       .... off
 Static damping         CNVDamp         .... on
   Fraction old density DampFac         ....    0.7000
   Max. Damping (<1)    DampMax         ....    0.9800
   Min. Damping (>=0)   DampMin         ....    0.0000
   Turn off err/grad.   DampErr         ....    0.1000

SCF Procedure:
 Maximum # iterations   MaxIter         ....   800
 SCF integral mode      SCFMode         .... Direct
   Integral package                     .... SHARK and LIBINT hybrid scheme
 Reset frequency        DirectResetFreq ....    20
 Integral Threshold     Thresh          ....  2.500e-11 Eh
 Primitive CutOff       TCut            ....  2.500e-12 Eh

Convergence Tolerance:
 Convergence Check Mode ConvCheckMode   .... Total+1el-Energy
 Convergence forced     ConvForced      .... 0
 Energy Change          TolE            ....  1.000e-08 Eh
 1-El. energy change                    ....  1.000e-05 Eh
 Orbital Gradient       TolG            ....  1.000e-05
 Orbital Rotation angle TolX            ....  1.000e-05
 DIIS Error             TolErr          ....  5.000e-07

--------------------------------
INITIAL GUESS: MINIMAL BASIS EHT
--------------------------------
The minimal basis has 50 functions
EHT matrix was diagonalized
Basis set overlap was calculated now projecting the orbitals
Using GuessMode=FMatrix for the initial guess
C*T matrix was formed
Effective Fockian was calculated
Effective Fockian was diagonalized
Initial density was built
                      ------------------
                      INITIAL GUESS DONE
                      ------------------
             **** ENERGY FILE WAS UPDATED (m1_00_Vitamin_B3-B97-3C-TZ.en.tmp) ****
Finished Guess after   0.5 sec
Maximum memory used throughout the entire GUESS-calculation: 9.6 MB


           ************************************************************
           *        Program running with 16 parallel MPI-processes    *
           *              working on a common directory               *
           ************************************************************

-------------------------------------------------------------------------------------------
                                      ORCA LEAN-SCF
                              memory conserving SCF solver
-------------------------------------------------------------------------------------------

----------------------------------------D-I-I-S--------------------------------------------
Iteration    Energy (Eh)           Delta-E    RMSDP     MaxDP     DIISErr   Damp  Time(sec)
-------------------------------------------------------------------------------------------
               ***  Starting incremental Fock matrix formation  ***
    1    -434.9258645648946526     0.00e+00  8.59e-03  1.95e-01  4.85e-01  0.700   1.3
Warning: op=0 Small HOMO/LUMO gap (   0.050) - skipping pre-diagonalization
         Will do a full diagonalization
    2    -435.5603438220974226    -6.34e-01  6.13e-03  1.52e-01  3.44e-01  0.700   0.2
    3    -435.8626359187169896    -3.02e-01  3.04e-03  6.12e-02  2.39e-01  0.700   0.1
                               ***Turning on AO-DIIS***
    4    -436.0743333960019186    -2.12e-01  2.40e-03  7.68e-02  1.66e-01  0.700   0.1
    5    -436.2245618405672190    -1.50e-01  1.76e-03  6.03e-02  1.17e-01  0.700   0.1
    6    -436.3303786814894352    -1.06e-01  1.13e-03  3.55e-02  8.19e-02  0.700   0.1
    7    -436.4052427079714676    -7.49e-02  2.53e-03  5.55e-02  5.75e-02  0.000   0.1
    8    -436.5780733699101006    -1.73e-01  6.07e-04  1.54e-02  2.93e-02  0.000   0.1
    9    -436.5799502989321468    -1.88e-03  2.42e-04  4.77e-03  9.49e-03  0.000   0.1
   10    -436.5799825495941491    -3.23e-05  8.87e-05  2.16e-03  8.77e-03  0.000   0.1
                              *** Initializing SOSCF ***
---------------------------------------S-O-S-C-F--------------------------------------
Iteration    Energy (Eh)           Delta-E    RMSDP     MaxDP     MaxGrad    Time(sec)
--------------------------------------------------------------------------------------
   11    -436.5801405853131314    -1.58e-04  3.78e-05  8.55e-04  1.73e-03     0.1
               *** Restarting incremental Fock matrix formation ***
   12    -436.5801518960390126    -1.13e-05  4.70e-05  1.42e-03  2.15e-04     0.1
   13    -436.5801471818681989     4.71e-06  3.09e-05  7.31e-04  5.06e-04     0.1
   14    -436.5801527111920564    -5.53e-06  1.80e-05  7.42e-04  6.57e-05     0.1
   15    -436.5801521903608204     5.21e-07  1.28e-05  5.64e-04  1.77e-04     0.1
   16    -436.5801528074617295    -6.17e-07  4.17e-06  1.10e-04  1.98e-05     0.1
   17    -436.5801527585336430     4.89e-08  3.17e-06  8.61e-05  5.36e-05     0.1
   18    -436.5801528153072582    -5.68e-08  1.91e-06  8.87e-05  1.40e-06     0.1
                  *** Gradient check signals convergence ***

               *****************************************************
               *                     SUCCESS                       *
               *           SCF CONVERGED AFTER  18 CYCLES          *
               *****************************************************

             **** ENERGY FILE WAS UPDATED (m1_00_Vitamin_B3-B97-3C-TZ.en.tmp) ****

----------------
TOTAL SCF ENERGY
----------------

Total Energy       :       -436.58015281530726 Eh          -11879.94992 eV

Components:
Nuclear Repulsion  :        408.21495705264164 Eh           11108.09371 eV
Electronic Energy  :       -844.79510986794890 Eh          -22988.04363 eV
One Electron Energy:      -1402.70679693075749 Eh          -38169.59245 eV
Two Electron Energy:        557.91168706280860 Eh           15181.54882 eV

Virial components:
Potential Energy   :       -871.41102704582840 Eh          -23712.29956 eV
Kinetic Energy     :        434.83087423052120 Eh           11832.34963 eV
Virial Ratio       :          2.00402289416059

DFT components:
N(Alpha)           :       32.000001070795 electrons
N(Beta)            :       32.000001070795 electrons
N(Total)           :       64.000002141589 electrons
E(XC)              :      -58.119216343833 Eh       

---------------
SCF CONVERGENCE
---------------

  Last Energy change         ...    5.6774e-08  Tolerance :   1.0000e-08
  Last MAX-Density change    ...    8.8745e-05  Tolerance :   1.0000e-07
  Last RMS-Density change    ...    1.9053e-06  Tolerance :   5.0000e-09
  Last DIIS Error            ...    1.7302e-03  Tolerance :   5.0000e-07
  Last Orbital Gradient      ...    1.3951e-06  Tolerance :   1.0000e-05
  Last Orbital Rotation      ...    7.3865e-06  Tolerance :   1.0000e-05


----------------
ORBITAL ENERGIES
----------------

  NO   OCC          E(Eh)            E(eV) 
   0   2.0000     -18.803896      -511.6800 
   1   2.0000     -18.740971      -509.9678 
   2   2.0000     -14.001948      -381.0124 
   3   2.0000     -10.033553      -273.0269 
   4   2.0000      -9.946303      -270.6527 
   5   2.0000      -9.945954      -270.6432 
   6   2.0000      -9.932895      -270.2878 
   7   2.0000      -9.930324      -270.2178 
   8   2.0000      -9.921584      -269.9800 
   9   2.0000      -1.025392       -27.9023 
  10   2.0000      -0.936447       -25.4820 
  11   2.0000      -0.880687       -23.9647 
  12   2.0000      -0.764282       -20.7972 
  13   2.0000      -0.727619       -19.7995 
  14   2.0000      -0.634283       -17.2597 
  15   2.0000      -0.593930       -16.1617 
  16   2.0000      -0.563135       -15.3237 
  17   2.0000      -0.502542       -13.6749 
  18   2.0000      -0.470694       -12.8082 
  19   2.0000      -0.448777       -12.2119 
  20   2.0000      -0.428232       -11.6528 
  21   2.0000      -0.414280       -11.2731 
  22   2.0000      -0.412562       -11.2264 
  23   2.0000      -0.374368       -10.1871 
  24   2.0000      -0.367886       -10.0107 
  25   2.0000      -0.356998        -9.7144 
  26   2.0000      -0.346382        -9.4255 
  27   2.0000      -0.292548        -7.9606 
  28   2.0000      -0.273561        -7.4440 
  29   2.0000      -0.259689        -7.0665 
  30   2.0000      -0.247910        -6.7460 
  31   2.0000      -0.229888        -6.2556 
  32   0.0000      -0.100335        -2.7303 
  33   0.0000      -0.072241        -1.9658 
  34   0.0000      -0.003999        -0.1088 
  35   0.0000       0.008034         0.2186 
  36   0.0000       0.039043         1.0624 
  37   0.0000       0.071863         1.9555 
  38   0.0000       0.079277         2.1572 
  39   0.0000       0.094055         2.5594 
  40   0.0000       0.097716         2.6590 
  41   0.0000       0.104399         2.8409 
  42   0.0000       0.121676         3.3110 
*Only the first 10 virtual orbitals were printed.

                    ********************************
                    * MULLIKEN POPULATION ANALYSIS *
                    ********************************

-----------------------
MULLIKEN ATOMIC CHARGES
-----------------------
   0 O :   -0.515759
   1 O :   -0.380528
   2 N :   -0.056222
   3 C :    0.190231
   4 C :   -0.215304
   5 C :   -0.155471
   6 C :   -0.051522
   7 C :   -0.171623
   8 C :    0.180630
   9 H :    0.206201
  10 H :    0.188210
  11 H :    0.183889
  12 H :    0.155373
  13 H :    0.441897
Sum of atomic charges:   -0.0000000

--------------------------------
MULLIKEN REDUCED ORBITAL CHARGES
--------------------------------
  0 O s       :     3.775753  s :     3.775753
      pz      :     1.792072  p :     4.697274
      px      :     1.404407
      py      :     1.500795
      dz2     :     0.005685  d :     0.042732
      dxz     :     0.005901
      dyz     :     0.003414
      dx2y2   :     0.021306
      dxy     :     0.006425

  1 O s       :     3.844956  s :     3.844956
      pz      :     1.428410  p :     4.505906
      px      :     1.615841
      py      :     1.461655
      dz2     :     0.005978  d :     0.029666
      dxz     :     0.005219
      dyz     :     0.002076
      dx2y2   :     0.005295
      dxy     :     0.011097

  2 N s       :     3.493898  s :     3.493898
      pz      :     1.114783  p :     3.517948
      px      :     1.065190
      py      :     1.337975
      dz2     :     0.005033  d :     0.044376
      dxz     :     0.005972
      dyz     :     0.006202
      dx2y2   :     0.015878
      dxy     :     0.011292

  3 C s       :     3.072502  s :     3.072502
      pz      :     1.037672  p :     2.690676
      px      :     0.887263
      py      :     0.765740
      dz2     :     0.003812  d :     0.046591
      dxz     :     0.004099
      dyz     :     0.005965
      dx2y2   :     0.018182
      dxy     :     0.014532

  4 C s       :     3.231915  s :     3.231915
      pz      :     0.900196  p :     2.941871
      px      :     1.010539
      py      :     1.031136
      dz2     :     0.003812  d :     0.041517
      dxz     :     0.005711
      dyz     :     0.003267
      dx2y2   :     0.013265
      dxy     :     0.015462

  5 C s       :     3.250298  s :     3.250298
      pz      :     0.895268  p :     2.849395
      px      :     0.958369
      py      :     0.995758
      dz2     :     0.004077  d :     0.055778
      dxz     :     0.007810
      dyz     :     0.003435
      dx2y2   :     0.017114
      dxy     :     0.023342

  6 C s       :     3.049369  s :     3.049369
      pz      :     1.000759  p :     2.962146
      px      :     0.977728
      py      :     0.983659
      dz2     :     0.003928  d :     0.040007
      dxz     :     0.004305
      dyz     :     0.003011
      dx2y2   :     0.013171
      dxy     :     0.015592

  7 C s       :     3.255753  s :     3.255753
      pz      :     0.908575  p :     2.859890
      px      :     1.035352
      py      :     0.915963
      dz2     :     0.004115  d :     0.055980
      dxz     :     0.002476
      dyz     :     0.008609
      dx2y2   :     0.024600
      dxy     :     0.016182

  8 C s       :     3.148848  s :     3.148848
      pz      :     0.811693  p :     2.555546
      px      :     0.937715
      py      :     0.806138
      dz2     :     0.004938  d :     0.114976
      dxz     :     0.010405
      dyz     :     0.022694
      dx2y2   :     0.046269
      dxy     :     0.030669

  9 H s       :     0.793799  s :     0.793799

 10 H s       :     0.811790  s :     0.811790

 11 H s       :     0.816111  s :     0.816111

 12 H s       :     0.844627  s :     0.844627

 13 H s       :     0.558103  s :     0.558103



                     *******************************
                     * LOEWDIN POPULATION ANALYSIS *
                     *******************************

----------------------
LOEWDIN ATOMIC CHARGES
----------------------
   0 O :   -0.538689
   1 O :   -0.427090
   2 N :   -0.179539
   3 C :   -0.030482
   4 C :   -0.073757
   5 C :   -0.013670
   6 C :   -0.173886
   7 C :   -0.048173
   8 C :    0.381430
   9 H :    0.193690
  10 H :    0.188870
  11 H :    0.175395
  12 H :    0.161554
  13 H :    0.384346

-------------------------------
LOEWDIN REDUCED ORBITAL CHARGES
-------------------------------
  0 O s       :     3.524364  s :     3.524364
      pz      :     1.762694  p :     4.729375
      px      :     1.408817
      py      :     1.557865
      dz2     :     0.042395  d :     0.284950
      dxz     :     0.020155
      dyz     :     0.047980
      dx2y2   :     0.098085
      dxy     :     0.076335

  1 O s       :     3.558146  s :     3.558146
      pz      :     1.418605  p :     4.630201
      px      :     1.655394
      py      :     1.556202
      dz2     :     0.032320  d :     0.238743
      dxz     :     0.022298
      dyz     :     0.039053
      dx2y2   :     0.070608
      dxy     :     0.074464

  2 N s       :     3.258479  s :     3.258479
      pz      :     1.110692  p :     3.839159
      px      :     1.262077
      py      :     1.466390
      dz2     :     0.009569  d :     0.081901
      dxz     :     0.010687
      dyz     :     0.007865
      dx2y2   :     0.030479
      dxy     :     0.023301

  3 C s       :     2.833355  s :     2.833355
      pz      :     0.991461  p :     3.099470
      px      :     1.011343
      py      :     1.096666
      dz2     :     0.007826  d :     0.097658
      dxz     :     0.006798
      dyz     :     0.010839
      dx2y2   :     0.038181
      dxy     :     0.034014

  4 C s       :     2.903110  s :     2.903110
      pz      :     0.901071  p :     3.090066
      px      :     1.092660
      py      :     1.096334
      dz2     :     0.006077  d :     0.080581
      dxz     :     0.010201
      dyz     :     0.005496
      dx2y2   :     0.028417
      dxy     :     0.030389

  5 C s       :     2.890047  s :     2.890047
      pz      :     0.893371  p :     3.010727
      px      :     1.022602
      py      :     1.094754
      dz2     :     0.007910  d :     0.112895
      dxz     :     0.013376
      dyz     :     0.005849
      dx2y2   :     0.037469
      dxy     :     0.048291

  6 C s       :     2.911225  s :     2.911225
      pz      :     0.987219  p :     3.182805
      px      :     1.099049
      py      :     1.096538
      dz2     :     0.006525  d :     0.079856
      dxz     :     0.007745
      dyz     :     0.004986
      dx2y2   :     0.029095
      dxy     :     0.031504

  7 C s       :     2.901663  s :     2.901663
      pz      :     0.902362  p :     3.033452
      px      :     1.077643
      py      :     1.053447
      dz2     :     0.007925  d :     0.113058
      dxz     :     0.003329
      dyz     :     0.015492
      dx2y2   :     0.051336
      dxy     :     0.034976

  8 C s       :     2.743149  s :     2.743149
      pz      :     0.741256  p :     2.622599
      px      :     0.969807
      py      :     0.911537
      dz2     :     0.016395  d :     0.252821
      dxz     :     0.017079
      dyz     :     0.042042
      dx2y2   :     0.104333
      dxy     :     0.072972

  9 H s       :     0.806310  s :     0.806310

 10 H s       :     0.811130  s :     0.811130

 11 H s       :     0.824605  s :     0.824605

 12 H s       :     0.838446  s :     0.838446

 13 H s       :     0.615654  s :     0.615654



                      *****************************
                      * MAYER POPULATION ANALYSIS *
                      *****************************

  NA   - Mulliken gross atomic population
  ZA   - Total nuclear charge
  QA   - Mulliken gross atomic charge
  VA   - Mayer's total valence
  BVA  - Mayer's bonded valence
  FA   - Mayer's free valence

  ATOM       NA         ZA         QA         VA         BVA        FA
  0 O      8.5158     8.0000    -0.5158     1.9599     1.9599     0.0000
  1 O      8.3805     8.0000    -0.3805     2.1227     2.1227    -0.0000
  2 N      7.0562     7.0000    -0.0562     3.0917     3.0917     0.0000
  3 C      5.8098     6.0000     0.1902     3.5255     3.5255    -0.0000
  4 C      6.2153     6.0000    -0.2153     3.9117     3.9117    -0.0000
  5 C      6.1555     6.0000    -0.1555     3.8696     3.8696    -0.0000
  6 C      6.0515     6.0000    -0.0515     3.6970     3.6970    -0.0000
  7 C      6.1716     6.0000    -0.1716     4.0080     4.0080    -0.0000
  8 C      5.8194     6.0000     0.1806     4.2449     4.2449     0.0000
  9 H      0.7938     1.0000     0.2062     0.9390     0.9390     0.0000
 10 H      0.8118     1.0000     0.1882     0.9689     0.9689    -0.0000
 11 H      0.8161     1.0000     0.1839     0.9293     0.9293    -0.0000
 12 H      0.8446     1.0000     0.1554     0.9537     0.9537    -0.0000
 13 H      0.5581     1.0000     0.4419     0.7880     0.7880     0.0000

  Mayer bond orders larger than 0.100000
B(  0-O ,  3-C ) :  -0.1373 B(  0-O ,  8-C ) :   1.1647 B(  0-O , 13-H ) :   0.7316 
B(  1-O ,  8-C ) :   1.9748 B(  2-N ,  5-C ) :   1.5349 B(  2-N ,  7-C ) :   1.5177 
B(  3-C ,  4-C ) :   1.4114 B(  3-C ,  5-C ) :   1.2865 B(  3-C ,  8-C ) :   1.0137 
B(  4-C ,  6-C ) :   1.4205 B(  4-C ,  9-H ) :   0.9252 B(  5-C , 10-H ) :   0.9366 
B(  6-C ,  7-C ) :   1.3681 B(  6-C , 11-H ) :   0.9058 B(  7-C , 12-H ) :   0.9577 



------------------
HIRSHFELD ANALYSIS
------------------

Total integrated alpha density =     32.000001071
Total integrated beta density  =     32.000001071

  ATOM     CHARGE      SPIN    
   0 O   -0.171059    0.000000
   1 O   -0.291721    0.000000
   2 N   -0.182757    0.000000
   3 C   -0.013345    0.000000
   4 C    0.001680    0.000000
   5 C    0.045384    0.000000
   6 C   -0.032399    0.000000
   7 C    0.044581    0.000000
   8 C    0.203498    0.000000
   9 H    0.055723    0.000000
  10 H    0.048446    0.000000
  11 H    0.052775    0.000000
  12 H    0.049245    0.000000
  13 H    0.189947    0.000000

  TOTAL  -0.000002    0.000000

-------------------------
CHELPG CHARGES GENERATION
-------------------------
Grid spacing                       ...     0.300000
Point Cut-Off                      ...     2.800000
Van-der-Waals Radii                ...        COSMO
Total charge                       ...            0
Dipole moment constraint           ...        FALSE


Number of points X direction       ...           41
Number of points Y direction       ...           33
Number of points Z direction       ...           18
Maximum number of possible points  ...        24354
Final number of points             ...         9250


Grid generated                     ...   0.0 sec
Potential calculated               ...   0.1 sec
RespFile stored                    ... ok
Charges calculated                 ...   0.0 sec
CHELPG Charges            
--------------------------------
  0   O   :      -0.589811
  1   O   :      -0.502811
  2   N   :      -0.644072
  3   C   :      -0.237210
  4   C   :       0.178509
  5   C   :       0.402600
  6   C   :      -0.501754
  7   C   :       0.463423
  8   C   :       0.572218
  9   H   :       0.104558
 10   H   :       0.074027
 11   H   :       0.198275
 12   H   :       0.036470
 13   H   :       0.445578
--------------------------------
Total charge:    -0.000000
--------------------------------

CHELPG charges calculated...

Timings:
Grid generation                 ...        0.001 sec (=   0.000 min)
Potential calculation           ...        0.129 sec (=   0.002 min)
Fit to the potential            ...        0.008 sec (=   0.000 min)
------------------------------------------------------------------------------

-------
TIMINGS
-------

Total SCF time: 0 days 0 hours 0 min 4 sec 

Total time                  ....       4.435 sec
Sum of individual times     ....       4.332 sec  ( 97.7%)

SCF preparation             ....       0.299 sec  (  6.7%)
Fock matrix formation       ....       3.348 sec  ( 75.5%)
  Startup                   ....       0.010 sec  (  0.3% of F)
  Split-RI-J                ....       0.839 sec  ( 25.1% of F)
  XC integration            ....       2.345 sec  ( 70.0% of F)
    XC Preparation          ....       0.000 sec  (  0.0% of XC)
    Basis function eval.    ....       0.481 sec  ( 20.5% of XC)
    Density eval.           ....       0.318 sec  ( 13.5% of XC)
    XC-Functional eval.     ....       0.091 sec  (  3.9% of XC)
    XC-Potential eval.      ....       0.358 sec  ( 15.3% of XC)
Diagonalization             ....       0.000 sec  (  0.0%)
Density matrix formation    ....       0.026 sec  (  0.6%)
Total Energy calculation    ....       0.016 sec  (  0.4%)
Population analysis         ....       0.361 sec  (  8.1%)
Orbital Transformation      ....       0.019 sec  (  0.4%)
Orbital Orthonormalization  ....       0.000 sec  (  0.0%)
DIIS solution               ....       0.213 sec  (  4.8%)
SOSCF solution              ....       0.051 sec  (  1.1%)
Finished LeanSCF after   4.5 sec

Maximum memory used throughout the entire LEANSCF-calculation: 25.2 MB


           ************************************************************
           *        Program running with 16 parallel MPI-processes    *
           *              working on a common directory               *
           ************************************************************

------------------------------------------------------------------------------
                         ORCA PROPERTY INTEGRAL CALCULATIONS
------------------------------------------------------------------------------

GBWName                                   ... m1_00_Vitamin_B3-B97-3C-TZ.gbw
Number of atoms                           ...     14
Number of basis functions                 ...    196
Max core memory                           ...   6000 MB

Dipole integrals                          ... YES
Quadrupole integrals                      ...  NO
Linear momentum integrals                 ...  NO
Angular momentum integrals                ...  NO
Higher moments length integrals           ...  NO
Higher moments velocity integrals         ...  NO
Kinetic energy integrals                  ...  NO
GIAO right hand sides                     ...  NO
GIAO dipole derivative integrals          ...  NO
SOC integrals                             ...  NO
EPR diamagnetic integrals (GIAO)          ...  NO
EPR gauge integrals                       ...  NO
Field gradient integrals                  ...  NO (   0 nuclei)
Spin-dipole/Fermi contact integrals       ...  NO (   0 nuclei)
Contact density integrals                 ...  NO (   0 nuclei)
Nucleus-orbit integrals                   ...  NO (   0 nuclei)
Geometric perturbations                   ...  NO (  14 nuclei)

Choice of electric origin   ... Center of mass
Position of electric origin ... ( -0.1989, -0.0321, -0.0000) 
Choice of magnetic origin   ... GIAO
Position of magnetic origin ... (  0.0000,  0.0000,  0.0000) 

Calculating integrals                     ... Electric Dipole (Length)     done (  0.1 sec)

Property integrals calculated in   0.1 sec

Maximum memory used throughout the entire PROPINT-calculation: 10.1 MB


-------------------------------------------------------------------------------
                          DFT DISPERSION CORRECTION                            
                                                                               
                              DFTD3 V3.1  Rev 1                                
                          USING Becke-Johnson damping                          
-------------------------------------------------------------------------------
The B97-3c composite method is recognized
Using three-body term ABC
Active option DFTDOPT                   ...         4   

molecular C6(AA) [au] = 2490.580541 


            DFT-D V3
 parameters
 s6 scaling factor         :     1.0000 
 a1 scaling factor         :     0.3700 
 s8 scaling factor         :     1.5000 
 a2 scaling factor         :     4.1000 
 Damping factor alpha9(ATM):    16.0000 
 ad hoc parameters k1-k3   :    16.0000     1.3333    -4.0000 

 Edisp/kcal,au: -20.727519127876  -0.033031400757 
 E6   /kcal   : -10.229533825 
 E8   /kcal   : -10.500770224 
 E6(ABC)      :   0.002784921 
 % E8         :  50.661008483 
 % E6(ABC)    :  -0.013435864 

-------------------------   ----------------
Dispersion correction           -0.033031401
-------------------------   ----------------

------------------   -----------------
SRB correction            -0.047219025
------------------   -----------------

-------------------------   --------------------
FINAL SINGLE POINT ENERGY      -436.660403241365
-------------------------   --------------------



           ************************************************************
           *        Program running with 16 parallel MPI-processes    *
           *              working on a common directory               *
           ************************************************************
------------------------------------------------------------------------------
                         ORCA SCF GRADIENT CALCULATION
------------------------------------------------------------------------------

Nuc. rep. gradient        (SHARK) ... done (  0.0 sec)
HCore & Overlap gradient  (SHARK) ... done (  0.1 sec)
Split-RIJ-J gradient      (SHARK) ... done (  0.8 sec)
XC gradient                       ... done (  0.7 sec)
Dispersion correction             ... done (  0.2 sec)

-------------------
DISPERSION GRADIENT
-------------------

   1   O   :   -0.000597638   -0.000275112   -0.000000248
   2   O   :   -0.000713630    0.000313041    0.000000127
   3   N   :    0.000553742   -0.000719725    0.000000106
   4   C   :   -0.000351507    0.000015542    0.000000192
   5   C   :    0.000109942    0.000826599   -0.000000085
   6   C   :    0.000160538   -0.000824186    0.000000263
   7   C   :    0.000596836    0.000609555   -0.000000183
   8   C   :    0.000853750   -0.000089041   -0.000000070
   9   C   :   -0.000953469    0.000017548    0.000000122
  10   H   :   -0.000036837    0.000522506   -0.000000065
  11   H   :    0.000022454   -0.000531403    0.000000175
  12   H   :    0.000249913    0.000366990   -0.000000118
  13   H   :    0.000432660   -0.000072625   -0.000000031
  14   H   :   -0.000326753   -0.000159690   -0.000000187

Difference to translation invariance:
           :   -0.0000000000   -0.0000000000   -0.0000000000

Difference to rotation invariance:
           :   -0.0000000000   -0.0000000000    0.0000000000

Norm of the Dispersion gradient    ...    0.0026157404
RMS gradient                       ...    0.0004036175
MAX gradient                       ...    0.0009534689
SRB correction                   ... done

------------------
CARTESIAN GRADIENT
------------------

   1   O   :    0.003222878    0.003964296   -0.000030896
   2   O   :   -0.020983439    0.025159936   -0.000047082
   3   N   :    0.008865863   -0.017359662    0.000004840
   4   C   :   -0.008488890   -0.000132920   -0.000030740
   5   C   :   -0.007019985   -0.011459530    0.000000171
   6   C   :   -0.026315454    0.014513741   -0.000013547
   7   C   :    0.009397091    0.002713448   -0.000001644
   8   C   :    0.003161728    0.013860092    0.000001274
   9   C   :    0.043813806   -0.022826476    0.000131126
  10   H   :    0.002271312    0.005576081   -0.000000717
  11   H   :    0.002993729   -0.005766961    0.000005358
  12   H   :    0.001209528    0.002145725   -0.000002484
  13   H   :    0.000815953   -0.000455983   -0.000000407
  14   H   :   -0.012944121   -0.009931787   -0.000015252

Difference to translation invariance:
           :   -0.0000000000   -0.0000000000    0.0000000000

Difference to rotation invariance:
           :    0.0000000497   -0.0000000591   -0.0000450037

Norm of the Cartesian gradient     ...    0.0756657933
RMS gradient                       ...    0.0116754854
MAX gradient                       ...    0.0438138062

-------
TIMINGS
-------

Total SCF gradient time     ....        1.797 sec

Densities                   ....       0.001 sec  (  0.0%)
One electron gradient       ....       0.073 sec  (  4.1%)
RI-J Coulomb gradient       ....       0.818 sec  ( 45.5%)
XC gradient                 ....       0.713 sec  ( 39.7%)

Maximum memory used throughout the entire SCFGRAD-calculation: 31.3 MB
------------------------------------------------------------------------------
                         ORCA GEOMETRY RELAXATION STEP
------------------------------------------------------------------------------

Reading the OPT-File                    .... done
Getting information on internals        .... done
Copying old internal coords+grads       .... done
Making the new internal coordinates     .... (2022 redundants) done
Validating the new internal coordinates .... (2022 redundants) done
Calculating the B-matrix                .... done
Calculating the G,G- and P matrices     .... done
Transforming gradient to internals      .... done
Projecting the internal gradient        .... done
Number of atoms                         ....  14
Number of internal coordinates          ....  60
Current Energy                          ....  -436.660403241 Eh
Current gradient norm                   ....     0.075665793 Eh/bohr
Maximum allowed component of the step   ....  0.300
Current trust radius                    ....  0.300
Evaluating the initial hessian          ....  (Almloef) done
Projecting the Hessian                  .... done
Forming the augmented Hessian           .... done
Diagonalizing the augmented Hessian     .... done
Last element of RFO vector              ....  0.995542488
Lowest eigenvalues of augmented Hessian:
 -0.004658750  0.016808068  0.020410274  0.024062314  0.026945546
Length of the computed step             ....  0.094736418
The final length of the internal step   ....  0.094736418
Converting the step to Cartesian space:
 Initial RMS(Int)=    0.0122304190
Transforming coordinates:
 Iter   0:  RMS(Cart)=    0.0313595818 RMS(Int)=    1.9867448489
 Iter   5:  RMS(Cart)=    0.0000000113 RMS(Int)=    0.0000000094
done
Storing new coordinates                 .... done

                                .--------------------.
          ----------------------|Geometry convergence|-------------------------
          Item                value                   Tolerance       Converged
          ---------------------------------------------------------------------
          RMS gradient        0.0068049587            0.0000300000      NO
          MAX gradient        0.0326585514            0.0001000000      NO
          RMS step            0.0122304190            0.0020000000      NO
          MAX step            0.0508220547            0.0040000000      NO
          ........................................................
          Max(Bonds)      0.0175      Max(Angles)    2.91
          Max(Dihed)        0.07      Max(Improp)    0.00
          ---------------------------------------------------------------------

The optimization has not yet converged - more geometry cycles are needed


    ---------------------------------------------------------------------------
                         Redundant Internal Coordinates
                            (Angstroem and degrees)

        Definition                    Value    dE/dq     Step     New-Value
    ----------------------------------------------------------------------------
     1. B(C   4,C   3)                1.3904  0.001737 -0.0011    1.3893   
     2. B(C   5,N   2)                1.3520  0.014922 -0.0123    1.3397   
     3. B(C   5,C   3)                1.3856 -0.008007  0.0068    1.3924   
     4. B(C   6,C   4)                1.3905  0.008613 -0.0071    1.3833   
     5. B(C   7,C   6)                1.3856 -0.001379  0.0009    1.3865   
     6. B(C   7,N   2)                1.3519  0.013993 -0.0117    1.3402   
     7. B(C   8,O   0)                1.3620  0.009264 -0.0078    1.3541   
     8. B(C   8,C   3)                1.4524 -0.013122  0.0138    1.4663   
     9. B(C   8,O   1)                1.2365  0.032659 -0.0175    1.2191   
    10. B(H   9,C   4)                1.0866  0.003890 -0.0056    1.0811   
    11. B(H  10,C   5)                1.0853  0.003836 -0.0055    1.0799   
    12. B(H  11,C   6)                1.0840  0.002460 -0.0035    1.0805   
    13. B(H  12,C   7)                1.0851  0.000848 -0.0012    1.0839   
    14. B(H  13,O   0)                0.9810  0.012781 -0.0139    0.9671   
    15. A(C   8,O   0,H  13)          111.82  0.018801   -2.91    108.91   
    16. A(C   5,N   2,C   7)          116.36 -0.002924    0.29    116.65   
    17. A(C   4,C   3,C   5)          117.90  0.000607    0.01    117.91   
    18. A(C   5,C   3,C   8)          121.05 -0.009097    1.19    122.24   
    19. A(C   4,C   3,C   8)          121.04  0.008490   -1.20    119.85   
    20. A(C   3,C   4,H   9)          121.16  0.002589   -0.50    120.66   
    21. A(C   3,C   4,C   6)          119.74  0.004259   -0.51    119.23   
    22. A(C   6,C   4,H   9)          119.09 -0.006848    1.01    120.10   
    23. A(C   3,C   5,H  10)          122.76  0.004951   -0.81    121.95   
    24. A(N   2,C   5,H  10)          113.20 -0.005807    0.91    114.11   
    25. A(N   2,C   5,C   3)          124.04  0.000856   -0.10    123.94   
    26. A(C   4,C   6,C   7)          117.90 -0.002689    0.37    118.27   
    27. A(C   7,C   6,H  11)          121.08  0.001482   -0.21    120.87   
    28. A(C   4,C   6,H  11)          121.02  0.001207   -0.16    120.86   
    29. A(N   2,C   7,C   6)          124.05 -0.000109   -0.06    123.99   
    30. A(C   6,C   7,H  12)          120.78  0.000456   -0.04    120.75   
    31. A(N   2,C   7,H  12)          115.17 -0.000347    0.09    115.26   
    32. A(O   0,C   8,O   1)          121.96 -0.001462    0.17    122.13   
    33. A(O   1,C   8,C   3)          125.49  0.004595   -0.59    124.90   
    34. A(O   0,C   8,C   3)          112.55 -0.003133    0.42    112.97   
    35. D(H   9,C   4,C   3,C   5)    180.00 -0.000001    0.00    180.00   
    36. D(C   6,C   4,C   3,C   8)   -179.99 -0.000000    0.00   -179.99   
    37. D(H   9,C   4,C   3,C   8)      0.00  0.000000   -0.00      0.00   
    38. D(C   6,C   4,C   3,C   5)      0.00 -0.000002    0.00      0.00   
    39. D(N   2,C   5,C   3,C   8)    180.00  0.000003   -0.00    180.00   
    40. D(N   2,C   5,C   3,C   4)      0.00  0.000003   -0.01     -0.00   
    41. D(C   3,C   5,N   2,C   7)     -0.00 -0.000002    0.00     -0.00   
    42. D(H  10,C   5,N   2,C   7)   -180.00  0.000002   -0.00   -180.00   
    43. D(H  10,C   5,C   3,C   4)    180.00 -0.000002    0.00    180.00   
    44. D(H  10,C   5,C   3,C   8)     -0.01 -0.000003    0.01     -0.00   
    45. D(H  11,C   6,C   4,H   9)     -0.00 -0.000001    0.00     -0.00   
    46. D(C   7,C   6,C   4,H   9)    180.00 -0.000001    0.00    180.00   
    47. D(C   7,C   6,C   4,C   3)     -0.00 -0.000001    0.00     -0.00   
    48. D(H  11,C   6,C   4,C   3)    180.00 -0.000001    0.00    180.00   
    49. D(C   6,C   7,N   2,C   5)      0.00 -0.000001    0.00      0.00   
    50. D(H  12,C   7,C   6,H  11)      0.00 -0.000000   -0.00      0.00   
    51. D(H  12,C   7,C   6,C   4)   -180.00  0.000000   -0.00   -180.00   
    52. D(N   2,C   7,C   6,H  11)   -180.00  0.000002   -0.00   -180.00   
    53. D(N   2,C   7,C   6,C   4)      0.00  0.000002   -0.00      0.00   
    54. D(H  12,C   7,N   2,C   5)   -180.00  0.000001   -0.00   -180.00   
    55. D(O   1,C   8,C   3,C   5)   -180.00  0.000031   -0.07   -180.07   
    56. D(O   1,C   8,C   3,C   4)     -0.00  0.000029   -0.07     -0.07   
    57. D(O   0,C   8,C   3,C   5)     -0.05 -0.000032    0.07      0.02   
    58. D(O   0,C   8,C   3,C   4)    179.94 -0.000033    0.07    180.02   
    59. D(C   3,C   8,O   0,H  13)   -179.97  0.000031   -0.07   -180.04   
    60. D(O   1,C   8,O   0,H  13)     -0.02 -0.000025    0.06      0.04   
    ----------------------------------------------------------------------------

Geometry step timings:
Preparation and reading OPT file:      0.000 s ( 0.680 %)
Internal coordinates            :      0.000 s ( 0.097 %)
B/P matrices and projection     :      0.000 s ( 1.528 %)
Hessian update/contruction      :      0.000 s ( 0.636 %)
Making the step                 :      0.022 s (95.053 %)
Converting the step to Cartesian:      0.000 s ( 0.233 %)
Storing new data                :      0.000 s ( 0.101 %)
Checking convergence            :      0.000 s ( 0.009 %)
Final printing                  :      0.000 s ( 1.650 %)
Total time                      :      0.023 s

Time for energy+gradient        :     24.396 s
Time for complete geometry iter :     24.947 s

         *************************************************************
         *                GEOMETRY OPTIMIZATION CYCLE   2            *
         *************************************************************
---------------------------------
CARTESIAN COORDINATES (ANGSTROEM)
---------------------------------
  O     -2.303956   -1.194020   -0.000290
  O     -2.447270    1.054301    0.000258
  N      1.772816   -1.211275    0.000163
  C     -0.295091    0.029825   -0.000327
  C      0.410075    1.226807   -0.000321
  C      0.434255   -1.156317   -0.000059
  C      1.793084    1.196179   -0.000130
  C      2.422655   -0.039161    0.000114
  C     -1.761252    0.046592   -0.000661
  H     -0.111288    2.173842   -0.000497
  H     -0.046904   -2.123074   -0.000030
  H      2.367668    2.111281   -0.000173
  H      3.504200   -0.109887    0.000304
  H     -3.267791   -1.114492    0.000150

----------------------------
CARTESIAN COORDINATES (A.U.)
----------------------------
  NO LB      ZA    FRAG     MASS         X           Y           Z
   0 O     8.0000    0    15.999   -4.353845   -2.256370   -0.000549
   1 O     8.0000    0    15.999   -4.624670    1.992339    0.000487
   2 N     7.0000    0    14.007    3.350136   -2.288978    0.000309
   3 C     6.0000    0    12.011   -0.557642    0.056361   -0.000618
   4 C     6.0000    0    12.011    0.774930    2.318328   -0.000606
   5 C     6.0000    0    12.011    0.820623   -2.185122   -0.000112
   6 C     6.0000    0    12.011    3.388437    2.260450   -0.000246
   7 C     6.0000    0    12.011    4.578155   -0.074004    0.000215
   8 C     6.0000    0    12.011   -3.328283    0.088045   -0.001250
   9 H     1.0000    0     1.008   -0.210305    4.107966   -0.000940
  10 H     1.0000    0     1.008   -0.088636   -4.012028   -0.000057
  11 H     1.0000    0     1.008    4.474244    3.989744   -0.000327
  12 H     1.0000    0     1.008    6.621978   -0.207657    0.000575
  13 H     1.0000    0     1.008   -6.175231   -2.106086    0.000283

--------------------------------
INTERNAL COORDINATES (ANGSTROEM)
--------------------------------
 O      0   0   0     0.000000000000     0.00000000     0.00000000
 O      1   0   0     2.252883373979     0.00000000     0.00000000
 N      1   2   0     4.076808002430    93.88977033     0.00000000
 C      1   2   3     2.352303552599    62.29657136     0.00000000
 C      4   1   2     1.389253415862   151.85390515     0.00000000
 C      3   1   2     1.339688600958     2.10861293   359.90031187
 C      5   4   1     1.383347779301   119.23455995   179.98874557
 C      3   1   2     1.340201930557   118.76221311     0.00000000
 C      2   1   3     1.219056796014    30.59862447     0.06861661
 H      5   4   1     1.081062738699   120.66305056     0.00000000
 H      6   3   8     1.079876566733   114.10859314   179.99881232
 H      7   5   4     1.080536625152   120.85566004   179.99678653
 H      8   3   1     1.083854893665   115.26329109   179.99631322
 H      1   2   3     0.967111217002    81.63586793   179.96837232

---------------------------
INTERNAL COORDINATES (A.U.)
---------------------------
 O      0   0   0     0.000000000000     0.00000000     0.00000000
 O      1   0   0     4.257332588485     0.00000000     0.00000000
 N      1   2   0     7.704050625172    93.88977033     0.00000000
 C      1   2   3     4.445209498262    62.29657136     0.00000000
 C      4   1   2     2.625308486594   151.85390515     0.00000000
 C      3   1   2     2.531644560547     2.10861293   359.90031187
 C      5   4   1     2.614148450848   119.23455995   179.98874557
 C      3   1   2     2.532614612905   118.76221311     0.00000000
 C      2   1   3     2.303683486161    30.59862447     0.06861661
 H      5   4   1     2.042912509727   120.66305056     0.00000000
 H      6   3   8     2.040670969564   114.10859314   179.99881232
 H      7   5   4     2.041918299209   120.85566004   179.99678653
 H      8   3   1     2.048188917937   115.26329109   179.99631322
 H      1   2   3     1.827575341177    81.63586793   179.96837232



           ************************************************************
           *        Program running with 16 parallel MPI-processes    *
           *              working on a common directory               *
           ************************************************************
------------------------------------------------------------------------------
                   ___                                                        
                  /   \      - P O W E R E D   B Y -                         
                 /     \                                                     
                 |  |  |   _    _      __       _____    __    __             
                 |  |  |  | |  | |    /  \     |  _  \  |  |  /  |          
                  \  \/   | |  | |   /    \    | | | |  |  | /  /          
                 / \  \   | |__| |  /  /\  \   | |_| |  |  |/  /          
                |  |  |   |  __  | /  /__\  \  |    /   |      \           
                |  |  |   | |  | | |   __   |  |    \   |  |\   \          
                \     /   | |  | | |  |  |  |  | |\  \  |  | \   \       
                 \___/    |_|  |_| |__|  |__|  |_| \__\ |__|  \__/        
                                                                              
                      - O R C A' S   B I G   F R I E N D -                    
                                      &                                       
                       - I N T E G R A L  F E E D E R -                       
                                                                              
 v1 FN, 2020, v2 2021, v3 2022-2024                                           
------------------------------------------------------------------------------


----------------------
SHARK INTEGRAL PACKAGE
----------------------

Number of atoms                             ...     14
Number of basis functions                   ...    196
Number of shells                            ...     98
Maximum angular momentum                    ...      2
Integral batch strategy                     ... SHARK/LIBINT Hybrid
RI-J (if used) integral strategy            ... SPLIT-RIJ (Revised 2003 algorithm where possible)
Printlevel                                  ...      1
Contraction scheme used                     ... SEGMENTED contraction
Prescreening option                         ... SCHWARTZ
   Thresh                                   ... 2.500e-11
   Tcut                                     ... 2.500e-12
   Tpresel                                  ... 2.500e-12 
Coulomb Range Separation                    ... NOT USED
Exchange Range Separation                   ... NOT USED
Multipole approximations                    ... NOT USED
Finite Nucleus Model                        ... NOT USED
CABS basis                                  ... NOT available
Auxiliary Coulomb fitting basis             ... AVAILABLE
   # of basis functions in Aux-J            ...    300
   # of shells in Aux-J                     ...    128
   Maximum angular momentum in Aux-J        ...      2
Auxiliary J/K fitting basis                 ... NOT available
[...]
     24       0.038174   0.208080   0.019367  -0.045222  -0.051891  -0.037325
     25       0.034228   0.186846   0.003216  -0.031651   0.010510  -0.001408
     26       0.000001   0.000023  -0.000003  -0.000003  -0.000000  -0.000004
     27       0.434019   0.003909   0.282312   0.232194   0.295713   0.425500
     28       0.286411  -0.010858   0.229239   0.011278   0.002742   0.339960
     29      -0.000024   0.000002  -0.000026   0.000002   0.000003  -0.000029
     30      -0.566066   0.354846   0.334722   0.511667  -0.324811   0.380681
     31       0.326519  -0.176248  -0.022004  -0.266729   0.057682  -0.239248
     32      -0.000043   0.000025   0.000010   0.000040  -0.000020   0.000044
     33       0.311192   0.115059   0.081795   0.467848   0.358732  -0.135512
     34      -0.153483  -0.038153   0.045460  -0.344175  -0.050203   0.247368
     35       0.000018   0.000001   0.000009   0.000032   0.000013  -0.000026
     36      -0.008612  -0.000453   0.132598   0.071435   0.113639  -0.097804
     37      -0.380630  -0.018712   0.788763  -0.404032   0.546424   0.125038
     38       0.000045   0.000001  -0.000097   0.000041  -0.000063  -0.000013
     39      -0.014856  -0.172836   0.001676   0.005522   0.001061   0.002156
     40      -0.080186  -0.826544   0.000064   0.043217   0.030960   0.042900
     41      -0.000004  -0.000031   0.000002   0.000002  -0.000003   0.000003
                 36         37         38         39         40         41    
      0       0.033860  -0.000024   0.000236  -0.000124   0.000215  -0.060925
      1      -0.064270   0.000002  -0.000400   0.000153   0.000027   0.007131
      2       0.000000  -0.000000  -0.000000   0.000000  -0.000000  -0.000006
      3       0.242521  -0.000040  -0.000211   0.000141   0.000047   0.000028
      4      -0.348928   0.000034  -0.000082   0.000237  -0.000538   0.000773
      5       0.000011  -0.000000  -0.000000  -0.000000   0.000000   0.000000
      6      -0.022890  -0.000187   0.000192  -0.000623  -0.000238  -0.000034
      7      -0.014930  -0.000970  -0.000589   0.000081  -0.000076   0.000024
      8       0.000001   0.000000  -0.000000  -0.000000  -0.000000  -0.000000
      9       0.059553  -0.000027   0.001699  -0.000119  -0.001598   0.000800
     10      -0.091326  -0.000110  -0.002386   0.000761  -0.002032   0.000027
     11       0.000011  -0.000000   0.000000  -0.000000   0.000000  -0.000000
     12       0.017351   0.000995   0.001248   0.014481  -0.042015  -0.000121
     13       0.043676  -0.001077  -0.005225  -0.029141   0.069263   0.000033
     14      -0.000004   0.000000   0.000001   0.000004  -0.000009  -0.000000
     15       0.018874  -0.000135   0.035658  -0.011060  -0.001647   0.000170
     16       0.022801  -0.002825   0.075224  -0.022073  -0.004921   0.000050
     17      -0.000003   0.000000  -0.000007   0.000002   0.000001   0.000000
     18      -0.007693   0.010298   0.012967   0.038384   0.021249   0.000065
     19      -0.019885   0.011198   0.020792   0.064146   0.028532  -0.000112
     20       0.000004  -0.000001  -0.000002  -0.000008  -0.000003  -0.000000
     21       0.005498  -0.084508   0.000711   0.017905   0.006073   0.000004
     22       0.021721   0.007669  -0.001855  -0.003305  -0.002216   0.000039
     23      -0.000002  -0.000001   0.000000   0.000000   0.000000   0.000000
     24      -0.434423   0.000032   0.000598  -0.000028  -0.000823  -0.003008
     25       0.543386  -0.000004   0.001128  -0.000685   0.000914  -0.000859
     26      -0.000027  -0.000000   0.000000   0.000000  -0.000000  -0.000000
     27      -0.074534  -0.010289  -0.030076  -0.194980   0.463641   0.000123
     28       0.008983   0.016581   0.054721   0.338294  -0.789145  -0.000616
     29       0.000000  -0.000002  -0.000007  -0.000042   0.000099  -0.000000
     30       0.019123   0.019456  -0.438154   0.128254   0.024355   0.000164
     31       0.031615   0.037603  -0.847332   0.247284   0.048654  -0.000400
     32       0.000001  -0.000004   0.000083  -0.000024  -0.000005   0.000000
     33      -0.049136  -0.106395  -0.149212  -0.452656  -0.207133   0.000106
     34       0.006589  -0.159009  -0.236770  -0.723796  -0.324212   0.000344
     35      -0.000014   0.000020   0.000026   0.000086   0.000038   0.000001
     36       0.000298   0.974808  -0.015596  -0.182607  -0.058016   0.000127
     37      -0.024277  -0.059401   0.002235   0.015087   0.006169   0.000012
     38      -0.000002   0.000006  -0.000000  -0.000001  -0.000001   0.000000
     39       0.096955  -0.000024  -0.000139   0.000637  -0.000150   0.991425
     40       0.542255   0.000180  -0.001766   0.000216   0.000774  -0.115331
     41       0.000056   0.000000   0.000001   0.000000   0.000000   0.000101


-----------
IR SPECTRUM
-----------

 Mode   freq       eps      Int      T**2         TX        TY        TZ
       cm**-1   L/(mol*cm) km/mol    a.u.
----------------------------------------------------------------------------
  6:     56.41   0.000669    3.38  0.003701  ( 0.000008  0.000013 -0.060837)
  7:    149.99   0.000004    0.02  0.000009  ( 0.000002 -0.000018  0.002945)
  8:    214.50   0.000708    3.58  0.001030  (-0.032087 -0.000454 -0.000006)
  9:    363.42   0.000848    4.29  0.000728  ( 0.000025  0.000001 -0.026988)
 10:    383.54   0.001021    5.16  0.000831  (-0.023890 -0.016123  0.000009)
 11:    414.16   0.000028    0.14  0.000021  (-0.000001  0.000011 -0.004613)
 12:    489.40   0.001911    9.66  0.001219  ( 0.014380  0.031812 -0.000001)
 13:    594.96   0.015308   77.36  0.008029  ( 0.000005 -0.000030 -0.089605)
 14:    623.11   0.002514   12.71  0.001259  (-0.023149 -0.026895  0.000008)
 15:    652.92   0.006591   33.31  0.003150  (-0.054151 -0.014756 -0.000001)
 16:    699.54   0.002724   13.76  0.001215  ( 0.000005 -0.000003  0.034858)
 17:    741.01   0.013506   68.25  0.005688  (-0.000006 -0.000007  0.075418)
 18:    783.93   0.001458    7.37  0.000580  ( 0.024039 -0.001531 -0.000003)
 19:    824.68   0.000596    3.01  0.000226  ( 0.000000 -0.000024  0.015018)
 20:    930.79   0.000058    0.29  0.000019  ( 0.000010  0.000007  0.004405)
 21:    963.44   0.000169    0.86  0.000055  (-0.000001 -0.000001 -0.007404)
 22:    977.91   0.000091    0.46  0.000029  (-0.000002  0.000021  0.005390)
 23:   1034.16   0.002957   14.94  0.000892  ( 0.029053 -0.006936  0.000005)
 24:   1048.73   0.000962    4.86  0.000286  ( 0.007740  0.015044  0.000001)
 25:   1102.04   0.034879  176.27  0.009877  (-0.068722 -0.071792 -0.000008)
 26:   1127.11   0.002654   13.41  0.000735  ( 0.015457  0.022266 -0.000002)
 27:   1202.00   0.024860  125.63  0.006454  ( 0.058544  0.055017  0.000005)
 28:   1222.63   0.010664   53.89  0.002722  ( 0.050833  0.011742  0.000005)
 29:   1307.54   0.000057    0.29  0.000014  ( 0.001081 -0.003536  0.000001)
 30:   1358.67   0.003087   15.60  0.000709  ( 0.020043  0.017530  0.000000)
 31:   1372.10   0.013691   69.19  0.003114  ( 0.052400  0.019183  0.000005)
 32:   1440.93   0.007092   35.84  0.001536  ( 0.034848  0.017928 -0.000001)
 33:   1503.26   0.000564    2.85  0.000117  ( 0.001132 -0.010765 -0.000001)
 34:   1593.35   0.001531    7.74  0.000300  (-0.000693 -0.017300  0.000002)
 35:   1618.76   0.010684   53.99  0.002060  (-0.045182  0.004262 -0.000001)
 36:   1760.65   0.063335  320.07  0.011226  (-0.060907  0.086695 -0.000000)
 37:   3110.88   0.004655   23.52  0.000467  (-0.021570 -0.001276  0.000000)
 38:   3144.86   0.002758   13.94  0.000274  ( 0.011071  0.012293 -0.000002)
 39:   3148.16   0.001700    8.59  0.000168  ( 0.011093  0.006739 -0.000001)
 40:   3164.12   0.001349    6.82  0.000133  ( 0.006249  0.009693 -0.000001)
 41:   3686.84   0.012588   63.62  0.001065  ( 0.031907  0.006888  0.000003)

* The epsilon (eps) is given for a Dirac delta lineshape.
** The dipole moment derivative (T) already includes vibrational overlap.

The first frequency considered to be a vibration is 6
The total number of vibrations considered is 36


--------------------------
THERMOCHEMISTRY AT 298.15K
--------------------------

Temperature         ...   298.15 K
Pressure            ...     1.00 atm
Total Mass          ...   123.11 AMU
Quasi RRHO          ...     True
Cut-Off Frequency   ...     1.00 cm^-1

Throughout the following assumptions are being made:
  (1) The electronic state is orbitally nondegenerate
  (2) There are no thermally accessible electronically excited states
  (3) Hindered rotations indicated by low frequency modes are not
      treated as such but are treated as vibrations and this may
      cause some error
  (4) All equations used are the standard statistical mechanics
      equations for an ideal gas
  (5) All vibrations are strictly harmonic

freq.      56.41  E(vib)   ...       0.52 
freq.     149.99  E(vib)   ...       0.40 
freq.     214.50  E(vib)   ...       0.34 
freq.     363.42  E(vib)   ...       0.22 
freq.     383.54  E(vib)   ...       0.20 
freq.     414.16  E(vib)   ...       0.19 
freq.     489.40  E(vib)   ...       0.15 
freq.     594.96  E(vib)   ...       0.10 
freq.     623.11  E(vib)   ...       0.09 
freq.     652.92  E(vib)   ...       0.08 
freq.     699.54  E(vib)   ...       0.07 
freq.     741.01  E(vib)   ...       0.06 
freq.     783.93  E(vib)   ...       0.05 
freq.     824.68  E(vib)   ...       0.04 
freq.     930.79  E(vib)   ...       0.03 
freq.     963.44  E(vib)   ...       0.03 
freq.     977.91  E(vib)   ...       0.03 
freq.    1034.16  E(vib)   ...       0.02 
freq.    1048.73  E(vib)   ...       0.02 
freq.    1102.04  E(vib)   ...       0.02 
freq.    1127.11  E(vib)   ...       0.01 
freq.    1202.00  E(vib)   ...       0.01 
freq.    1222.63  E(vib)   ...       0.01 
freq.    1307.54  E(vib)   ...       0.01 
freq.    1358.67  E(vib)   ...       0.01 
freq.    1372.10  E(vib)   ...       0.01 
freq.    1440.93  E(vib)   ...       0.00 
freq.    1503.26  E(vib)   ...       0.00 
freq.    1593.35  E(vib)   ...       0.00 
freq.    1618.76  E(vib)   ...       0.00 
freq.    1760.65  E(vib)   ...       0.00 
freq.    3110.88  E(vib)   ...       0.00 
freq.    3144.86  E(vib)   ...       0.00 
freq.    3148.16  E(vib)   ...       0.00 
freq.    3164.12  E(vib)   ...       0.00 
freq.    3686.84  E(vib)   ...       0.00 

------------
INNER ENERGY
------------

The inner energy is: U= E(el) + E(ZPE) + E(vib) + E(rot) + E(trans)
    E(el)   - is the total energy from the electronic structure calculation
              = E(kin-el) + E(nuc-el) + E(el-el) + E(nuc-nuc)
    E(ZPE)  - the the zero temperature vibrational energy from the frequency calculation
    E(vib)  - the the finite temperature correction to E(ZPE) due to population
              of excited vibrational states
    E(rot)  - is the rotational thermal energy
    E(trans)- is the translational thermal energy

Summary of contributions to the inner energy U:
Electronic energy                ...   -436.66432996 Eh
Zero point energy                ...      0.10208577 Eh      64.06 kcal/mol
Thermal vibrational correction   ...      0.00433159 Eh       2.72 kcal/mol
Thermal rotational correction    ...      0.00141627 Eh       0.89 kcal/mol
Thermal translational correction ...      0.00141627 Eh       0.89 kcal/mol
-----------------------------------------------------------------------
Total thermal energy                   -436.55508005 Eh


Summary of corrections to the electronic energy:
(perhaps to be used in another calculation)
Total thermal correction                  0.00716413 Eh       4.50 kcal/mol
Non-thermal (ZPE) correction              0.10208577 Eh      64.06 kcal/mol
-----------------------------------------------------------------------
Total correction                          0.10924991 Eh      68.56 kcal/mol


--------
ENTHALPY
--------

The enthalpy is H = U + kB*T
                kB is Boltzmann's constant
Total thermal energy              ...   -436.55508005 Eh 
Thermal Enthalpy correction       ...      0.00094421 Eh       0.59 kcal/mol
-----------------------------------------------------------------------
Total Enthalpy                    ...   -436.55413584 Eh


Note: Only C1 symmetry has been detected, increase convergence thresholds 
      if your molecule has a higher symmetry. Symmetry factor of 1.0 is   
      used for the rotational entropy correction. 
 

Note: Rotational entropy computed according to Herzberg 
Infrared and Raman Spectra, Chapter V,1, Van Nostrand Reinhold, 1945 
Point Group:  C1, Symmetry Number:   1  
Rotational constants in cm-1:     0.132492     0.041672     0.031701 

Vibrational entropy computed according to the QRRHO of S. Grimme
Chem.Eur.J. 2012 18 9955 using a reference frequency of 100.0 cm-1


-------
ENTROPY
-------

The entropy contributions are T*S = T*(S(el)+S(vib)+S(rot)+S(trans))
     S(el)   - electronic entropy
     S(vib)  - vibrational entropy
     S(rot)  - rotational entropy
     S(trans)- translational entropy
The entropies will be listed as multiplied by the temperature to get
units of energy

Electronic entropy                ...      0.00000000 Eh      0.00 kcal/mol
Vibrational entropy               ...      0.00709425 Eh      4.45 kcal/mol
Rotational entropy                ...      0.01359465 Eh      8.53 kcal/mol
Translational entropy             ...      0.01916571 Eh     12.03 kcal/mol
-----------------------------------------------------------------------
Final entropy term                ...      0.03985461 Eh     25.01 kcal/mol

In case the symmetry of your molecule has not been determined correctly
or in case you have a reason to use a different symmetry number we print 
out the resulting rotational entropy values for sn=1,12:

 non-linear molecules -----------------------------------
|  sn= 1 | S(rot)=       0.01359465 Eh      8.53 kcal/mol|
|  sn= 2 | S(rot)=       0.01294019 Eh      8.12 kcal/mol|
|  sn= 3 | S(rot)=       0.01255736 Eh      7.88 kcal/mol|
|  sn= 4 | S(rot)=       0.01228574 Eh      7.71 kcal/mol|
|  sn= 5 | S(rot)=       0.01207505 Eh      7.58 kcal/mol|
|  sn= 6 | S(rot)=       0.01190290 Eh      7.47 kcal/mol|
|  sn= 7 | S(rot)=       0.01175736 Eh      7.38 kcal/mol|
|  sn= 8 | S(rot)=       0.01163128 Eh      7.30 kcal/mol|
|  sn= 9 | S(rot)=       0.01152007 Eh      7.23 kcal/mol|
|  sn=10 | S(rot)=       0.01142059 Eh      7.17 kcal/mol|
|  sn=11 | S(rot)=       0.01133060 Eh      7.11 kcal/mol|
|  sn=12 | S(rot)=       0.01124845 Eh      7.06 kcal/mol|
 linear molecules ---------------------------------------
|  Dinfh | S(rot)=       0.00858455 Eh      5.39 kcal/mol|
|  Cinfv | S(rot)=       0.00923900 Eh      5.80 kcal/mol|
 --------------------------------------------------------


-------------------
GIBBS FREE ENERGY
-------------------

The Gibbs free energy is G = H - T*S

Total enthalpy                    ...   -436.55413584 Eh 
Total entropy correction          ...     -0.03985461 Eh    -25.01 kcal/mol
-----------------------------------------------------------------------
Final Gibbs free energy         ...   -436.59399045 Eh

For completeness - the Gibbs free energy minus the electronic energy
G-E(el)                           ...      0.07033951 Eh     44.14 kcal/mol


Maximum memory used throughout the entire PROP-calculation: 45.0 MB

--------------------------------
SUGGESTED CITATIONS FOR THIS RUN
--------------------------------

Below you find a list of papers that are relevant to this ORCA run
We neither can nor want to force you to cite these papers, but we appreciate if you do
You receive ORCA, which is the product of decades of hard work by many enthusiastic individuals, for free
The only thing we kindly ask in return is that you cite our papers,
We deeply appreciate it, if you show your appreciation for ORCA by not just citing the generic ORCA reference.

Please note that relegating all ORCA citations to the supporting information does *not* help us.
SI sections are not indexed - citations you put there will not count into any citation statistics
But we need these citations in order to attract the funding resources that allow us to do what we are doing

Therefore, if you are a happy ORCA user, please consider citing a few of the papers listed below in the main body of your paper

In addition to the list printed below, the program has created the file m1_00_Vitamin_B3-B97-3C-TZ.bibtex that contains the list in bibtex format
You can import this file easily into all common literature databanks and citation aid programs


List of essential papers. We consider these as the minimum necessary citations

  1. Neese,F.
     Software update: the ORCA program system, version 5.0
     WIRES Comput. Molec. Sci., 2022 12(1)e1606
     doi.org/10.1002/wcms.1606

List of papers to cite with high priority. The work reported in these papers was absolutely
necessary for this run to complete.
Our perspective: the developers of density functionals and basis sets usually get cited in chemistry papers
Good! But without the algorithms to do something with them, the functionals or basis sets would not do anything.
Hence, in our opinion, the algorithm design and method developments papers are equally worthy of getting cited

  1. Neese,F.
     An improvement of the resolution of the identity approximation for the formation of the Coulomb matrix
     J. Comp. Chem., 2003 24(14)1740-1747
     doi.org/10.1002/jcc.10318
  2. Bykov,D.; Petrenko,T.; Izsak,R.; Kossmann,S.; Becker,U.; Valeev,E.; Neese,F.
     Efficient implementation of the analytic second derivatives of Hartree-Fock and hybrid DFT energies: a detailed analysis of different approximations
     Molec. Phys., 2015 113 1961-1977
     doi.org/10.1080/00268976.2015.1025114
  3. Neese,F.
     The SHARK Integral Generation and Digestion System
     J. Comp. Chem., 2022  1-16
     doi.org/10.1002/jcc.26942
  4. Grimme,S.; Antony,J.; Ehrlich,S.; Krieg,H.
     A consistent and accurate ab initio parametrization of density functional dispersion correction (DFT-D) for the 94 elements H-Pu
     J. Chem. Phys., 2010 132 154104
     doi.org/10.1063/1.3382344
  5. Grimme,S.; Ehrlich,S.; Goerigk,L.
     Effect of the damping function in dispersion corrected density functional theory
     J. Comput. Chem., 2011 32(7)1456-1465
     doi.org/10.1002/jcc.21759

List of suggested additional citations. These are papers that are important in the 'surrounding' of 
of this run, or papers that preceded the highly important papers. If you like your results we are grateful for a citation.

  1. Neese,F.
     The ORCA program system
     WIRES Comput. Molec. Sci., 2012 2(1)73-78
     doi.org/10.1002/wcms.81
  2. Neese,F.
     Software update: the ORCA program system, version 4.0
     WIRES Comput. Molec. Sci., 2018 8(1)1-6
     doi.org/10.1002/wcms.1327
  3. Neese,F.; Wennmohs,F.; Becker,U.; Riplinger,C.
     The ORCA quantum chemistry program package
     J. Chem. Phys., 2020 152 Art. No. L224108
     doi.org/10.1063/5.0004608

List of optional additional citations

  1. Neese,F.
     Approximate second-order SCF convergence for spin unrestricted wavefunctions
     Chem. Phys. Lett., 2000 325(1-3)93-98
     doi.org/10.1016/s0009-2614(00)00662-x

Timings for individual modules:

Sum of individual times          ...       79.658 sec (=   1.328 min)
Startup calculation              ...       24.346 sec (=   0.406 min)  30.6 %
SCF iterations                   ...       19.927 sec (=   0.332 min)  25.0 %
Property integrals               ...       12.984 sec (=   0.216 min)  16.3 %
SCF Response                     ...        6.527 sec (=   0.109 min)   8.2 %
Property calculations            ...        6.424 sec (=   0.107 min)   8.1 %
SCF Gradient evaluation          ...        8.625 sec (=   0.144 min)  10.8 %
Geometry relaxation              ...        0.825 sec (=   0.014 min)   1.0 %
                             ****ORCA TERMINATED NORMALLY****
TOTAL RUN TIME: 0 days 0 hours 1 minutes 31 seconds 872 msec
