
                                 *****************
                                 * O   R   C   A *
                                 *****************

                                            #,                                       
                                            ###                                      
                                            ####                                     
                                            #####                                    
                                            ######                                   
                                           ########,                                 
                                     ,,################,,,,,                         
                               ,,#################################,,                 
                          ,,##########################################,,             
                       ,#########################################, ''#####,          
                    ,#############################################,,   '####,        
                  ,##################################################,,,,####,       
                ,###########''''           ''''###############################       
              ,#####''   ,,,,##########,,,,          '''####'''          '####       
            ,##' ,,,,###########################,,,                        '##       
           ' ,,###''''                  '''############,,,                           
         ,,##''                                '''############,,,,        ,,,,,,###''
      ,#''                                            '''#######################'''  
     '                                                          ''''####''''         
             ,#######,   #######,   ,#######,      ##                                
            ,#'     '#,  ##    ##  ,#'     '#,    #''#        ,####,   ,####,        
            ##       ##  ##   ,#'  ##            #'  '#       #'       #'  '#        
            ##       ##  #######   ##           ,######,      #####,   #    #        
            '#,     ,#'  ##    ##  '#,     ,#' ,#      #,     #,   #   #,  ,#        
             '#######'   ##     ##  '#######'  #'      '#     '####' # '####'        



                #########################################################
                #                        -***-                          #
                #          Department of theory and spectroscopy        #
                #                                                       #
                #                      Frank Neese                      #
                #                                                       #
                #     Directorship, Architecture, Infrastructure        #
                #                    SHARK, DRIVERS                     #
                #        Core code/Algorithms in most modules           #
                #                                                       #
                #        Max Planck Institute fuer Kohlenforschung      #
                #                Kaiser Wilhelm Platz 1                 #
                #                 D-45470 Muelheim/Ruhr                 #
                #                      Germany                          #
                #                                                       #
                #                  All rights reserved                  #
                #                        -***-                          #
                #########################################################


                         Program Version 6.0.1  -  RELEASE   -


 With contributions from (in alphabetic order):
[Max-Planck-Institut fuer Kohlenforschung]                               
  Daniel Aravena         : Magnetic Suceptibility                        
  Michael Atanasov       : Ab Initio Ligand Field Theory (pilot matlab implementation)
  Alexander A. Auer      : GIAO ZORA, VPT2 properties, NMR spectrum      
  Ute Becker             : All parallelization in ORCA, NUMFREQ, NUMCALC 
  Giovanni Bistoni       : ED, misc. LED, open-shell LED, HFLD           
  Martin Brehm           : Molecular dynamics                            
  Dmytro Bykov           : pre 5.0 version of the SCF Hessian            
  Marcos Casanova-Páez   : Triplet and SCS-CIS(D). UHF-(DLPNO)-IP/EA/STEOM-CCSD. UHF-CVS-IP/STEOM-CCSD   
  Vijay G. Chilkuri      : MRCI spin determinant printing, contributions to CSF-ICE 
  Pauline Colinet        : FMM embedding                                 
  Dipayan Datta          : RHF DLPNO-CCSD density                        
  Achintya Kumar Dutta   : EOM-CC, STEOM-CC                              
  Nicolas Foglia         : Exact transition moments, OPA infrastructure, MCD improvements    
  Dmitry Ganyushin       : Spin-Orbit,Spin-Spin,Magnetic field MRCI      
  Miquel Garcia-Rates    : C-PCM and meta-GGA Hessian, CCSD/C-PCM, Gaussian charge scheme 
  Tiago L. C. Gouveia    : GS-ROHF, GS-ROCIS                             
  Yang Guo               : DLPNO-NEVPT2, F12-NEVPT2, CIM, IAO-localization        
  Andreas Hansen         : Spin unrestricted coupled pair/coupled cluster methods 
  Ingolf Harden          : AUTO-CI MPn and infrastructure                
  Benjamin Helmich-Paris : MC-RPA, TRAH-(SCF,CASSCF), AVAS, COSX integrals, SCF dyn. polar. 
  Lee Huntington         : MR-EOM, pCC                                   
  Robert Izsak           : Overlap fitted RIJCOSX, COSX-SCS-MP3, EOM     
  Riya Kayal             : Wick's Theorem for AUTO-CI, AUTO-CI UHF-CCSDT 
  Emily Kempfer          : AUTO-CI, RHF CISDT and CCSDT                  
  Christian Kollmar      : KDIIS, OOCD, Brueckner-CCSD(T), CCSD density, CASPT2, CASPT2-K, improved NEVPT2 
  Axel Koslowski         : Symmetry handling                             
  Simone Kossmann        : meta-GGA functionals, TD-DFT gradient, OOMP2, (MP2 Hessian; deprecated post 5.0) 
  Lucas Lang             : DCDCAS                                        
  Marvin Lechner         : AUTO-CI (C++ implementation), FIC-MRCC        
  Spencer Leger          : CASSCF response                               
  Dagmar Lenk            : GEPOL surface, SMD, ORCA-2-JSON               
  Dimitrios Liakos       : Extrapolation schemes; Compound Job, initial MDCI parallelization 
  Dimitrios Manganas     : Further ROCIS development; embedding schemes. LFT, Crystal Embedding 
  Dimitrios Pantazis     : SARC Basis sets                               
  Anastasios Papadopoulos: AUTO-CI, single reference methods and gradients 
  Taras Petrenko         : pre 6.0 DFT Hessian and TD-DFT gradient, (ASA, deprecated), ECA, 1-Electron XAS/XES, NRVS 
  Peter Pinski           : DLPNO-MP2, DLPNO-MP2 Gradient                 
  Christoph Reimann      : Effective Core Potentials                     
  Marius Retegan         : Local ZFS, SOC                                
  Christoph Riplinger    : Optimizer, TS searches, QM/MM, DLPNO-CCSD(T), (RO)-DLPNO pert. Triples 
  Michael Roemelt        : Original ROCIS implementation                 
  Masaaki Saitow         : Open-shell DLPNO-CCSD energy and density      
  Barbara Sandhoefer     : DKH picture change effects                    
  Kantharuban Sivalingam : CASSCF convergence/infrastructure, NEVPT2 and variants, FIC-MRCI 
  Bernardo de Souza      : ESD, SOC TD-DFT                               
  Georgi L. Stoychev     : AutoAux, RI-MP2 NMR, DLPNO-MP2 response, X2C  
  Van Anh Tran           : RI-MP2 g-tensors                              
  Willem Van den Heuvel  : Paramagnetic NMR                              
  Zikuan Wang            : NOTCH, Electric field optimization            
  Frank Wennmohs         : Technical directorship and infrastructure     
  Hang Xu                : AUTO-CI-Response properties                   
                                                                         
[FACCTs GmbH]                                                            
  Markus Bursch, Miquel Garcia-Rates, Christoph Riplinger, Bernardo de Souza, Georgi L. Stoychev 
                                                                 
  APM, Basis sets (HGBS, AHGBS, def-TZVP (Ac-Lr), def2-XVPD (La-Lu)), CI-OPT, improved COSX, DLPNO-Multilevel,           
  DOCKER, DRACO, updates on ESD, GOAT, IRC, LR-CPCM, MBIS, meta-GGA TD-DFT gradient, ML-optimized integration grids, 
  MM, NACMEs, nearIR, NEB, NEB-TS, NL-DFT gradient (VV10), 2- and 3-layer-ONIOM, interface openCOSMO-RS, QMMM,   
  Crystal-QMMM, SF, symmetry and pop. for TD-DFT, r2SCAN hybrids, SOLVATOR                                   
                                                                         
[Other institutions]                                                     
  V. Asgeirsson          : NEB                                           
  Christoph Bannwarth    : sTDA-DFT, sTD-DFT, PBEh-3c, B97-3c, D3        
  Sebastian Ehlert       : rSCAN, r2SCAN, r2SCAN-3c, D4, dhf basis sets  
  Marvin Friede          : D4 for Fr, Ra, Ac-Lr                          
  Lars Goerigk           : TD-DFT with DH, B97 family of functionals     
  Stefan Grimme          : VdW corrections, initial TS optimization, DFT functionals, gCP, sTDA/sTD-DF 
  Waldemar Hujo          : DFT-NL                                        
  H. Jonsson             : NEB                                           
  Holger Kruse           : gCP                                           
  Marcel Mueller         : wB97X-3c, vDZP basis set                      
  Hagen Neugebauer       : wr2SCAN                                       
  Tobias Risthaus        : range-separated hybrid DFT                    
  Lukas Wittmann         : regularized MP2, r2SCAN double-hybrids, wr2SCAN        
                                                                         
We gratefully acknowledge several colleagues who have allowed us to      
interface, adapt or use parts of their codes:                            
  Ed Valeev, F. Pavosevic, A. Kumar             : LibInt (2-el integral package), F12 methods 
  Garnet Chan, S. Sharma, J. Yang, R. Olivares  : DMRG                   
  Ulf Ekstrom                                   : XCFun DFT Library      
  Mihaly Kallay                                 : mrcc  (arbitrary order and MRCC methods)
  Frank Weinhold                                : gennbo (NPA and NBO analysis)           
  Simon Mueller                                 : openCOSMO-RS                            
  Christopher J. Cramer and Donald G. Truhlar   : smd solvation model                     
  S Lehtola, MJT Oliveira, MAL Marques          : LibXC Library                           
  Liviu Ungur et al                             : ANISO software                          


 Your calculation uses the libint2 library for the computation of 2-el integrals
 For citations please refer to: http://libint.valeyev.net

 Your ORCA version has been built with support for libXC version: 6.2.2
 For citations please refer to: https://libxc.gitlab.io

 This ORCA versions uses:
   CBLAS   interface :  Fast vector & matrix operations
   LAPACKE interface :  Fast linear algebra routines
   SCALAPACK package :  Parallel linear algebra routines
   Shared memory     :  Shared parallel matrices
   BLAS/LAPACK       :  OpenBLAS 0.3.27  USE64BITINT DYNAMIC_ARCH NO_AFFINITY Zen SINGLE_THREADED
        Core in use  :  Zen
   Copyright (c) 2011-2014, The OpenBLAS Project


NOTE: MaxCore=6000 MB was set to SCF,MP2,MDCI,CIPSI,MRCI and CIS
      => If you want to overwrite this, your respective input block should be placed after the MaxCore statement
Your calculation utilizes the atom-pairwise dispersion correction
with the Becke-Johnson damping scheme (D3BJ)


Your calculation employs the composite approach B97-3c by Grimme and coworkers.
For the correct reference, please check the publication list of the Grimme group:
http://www.thch.uni-bonn.de/tc/index.php?section=publikationen&subsection=grimme#2017
   

XCFun DFT library Copyright 2009-2010 Ulf Ekstrom and contributors.
See http://admol.org/xcfun for more information.
This is free software; see the source code for copying conditions.
There is ABSOLUTELY NO WARRANTY; not even for MERCHANTABILITY or FITNESS FOR A PARTICULAR PURPOSE.
For details see the documentation.
Scientific users of this library should cite U. Ekstrom, L. Visscher, R. Bast, A. J. Thorvaldsen and K. Ruud;
J.Chem.Theor.Comp. 2010, DOI: 10.1021/ct100117s
XCFun Version 0.99 

================================================================================

----- Orbital basis set information -----
Your calculation utilizes the basis: def2-mTZVP
----- AuxJ basis set information -----
Your calculation utilizes the basis: def2-mTZVP/J
================================================================================
                                        WARNINGS
                       Please study these warnings very carefully!
================================================================================


WARNING: Geometry Optimization
  ===> : Switching off AutoStart
         For restart on a previous wavefunction, please use MOREAD

================================================================================
                                       INPUT FILE
================================================================================
NAME = m1_01_Vitamin_B1-B97-3C-TZ.inp
|  1> %pal nprocs 16 end
|  2> %MaxCore 6000
|  3> # put your comments here
|  4> ! B97-3C  OPT  FREQ DEFGRID3 NOTRAH CHELPG
|  5> %scf MaxIter 800 end
|  6> %output
|  7> Print [P_Hirshfeld] 1
|  8> end
|  9> %geom
| 10> MaxIter 3000
| 11>  TolE 1e-6 #TolE 5e-6 Energy change (a.u.)
| 12>  TolRMSG 3e-5 #TolRMSG 1e-4 RMS gradient (a.u.)
| 13>  TolMaxG 1e-4 #TolMaxG 3e-3 Max. element of gradient (a.u.)
| 14>  TolRMSD 2e-3 #TolRMSD 2e-3 RMS displacement (a.u.)
| 15>  TolMaxD 4e-3 #TolMaxD 4e-3 Max. displacement (a.u.)
| 16> end
| 17> * xyz 1 1
| 18>  S      1.948200000     -1.403100000      1.196000000
| 19>  O      6.456000000      0.091400000      0.446600000
| 20>  N      0.664700000     -0.106800000     -0.494100000
| 21>  N     -3.720100000     -0.863900000      0.040400000
| 22>  N     -3.346800000      1.425300000      0.694400000
| 23>  N     -2.122900000     -2.001100000     -1.293700000
| 24>  C      1.855200000      0.557900000     -0.418900000
| 25>  C     -0.422000000      0.311200000     -1.382500000
| 26>  C      2.705400000     -0.031300000      0.486300000
| 27>  C      4.076100000      0.346300000      0.883600000
| 28>  C     -1.720500000      0.278500000     -0.659900000
| 29>  C      0.529400000     -1.153100000      0.273500000
| 30>  C      2.064900000      1.745500000     -1.260000000
| 31>  C      5.162900000     -0.319700000      0.020500000
| 32>  C     -2.540900000     -0.830100000     -0.614500000
| 33>  C     -2.179100000      1.388800000      0.019300000
| 34>  C     -4.056600000      0.281300000      0.664000000
| 35>  C     -5.354000000      0.282800000      1.399000000
| 36>  H     -0.402000000     -0.322800000     -2.275100000
| 37>  H     -0.278100000      1.328300000     -1.758800000
| 38>  H      4.262600000      0.101700000      1.937700000
| 39>  H      4.198900000      1.435800000      0.832400000
| 40>  H     -0.309500000     -1.818300000      0.364200000
| 41>  H      1.902300000      1.520200000     -2.318900000
| 42>  H      1.405600000      2.565200000     -0.957100000
| 43>  H      3.091800000      2.116500000     -1.176700000
| 44>  H      5.046100000     -0.056200000     -1.036300000
| 45>  H      5.111900000     -1.410400000      0.102100000
| 46>  H     -1.609300000      2.312300000      0.049300000
| 47>  H     -1.618300000     -1.910600000     -2.165300000
| 48>  H     -2.740500000     -2.800400000     -1.211700000
| 49>  H      6.496900000      1.059300000      0.361800000
| 50>  H     -5.616200000     -0.726900000      1.730100000
| 51>  H     -5.297500000      0.925300000      2.283300000
| 52>  H     -6.148400000      0.654300000      0.745100000
| 53> *
| 54> 
| 55> 
| 56> 
| 57> 
| 58>                          ****END OF INPUT****
================================================================================

                       *****************************
                       * Geometry Optimization Run *
                       *****************************

Geometry optimization settings:
Update method            Update   .... BFGS
Choice of coordinates    CoordSys .... (2022) Redundant Internals
Initial Hessian          InHess   .... Almloef's Model
Max. no of cycles        MaxIter  .... 3000

Convergence Tolerances:
Energy Change            TolE     ....  1.0000e-06 Eh
Max. Gradient            TolMAXG  ....  1.0000e-04 Eh/bohr
RMS Gradient             TolRMSG  ....  3.0000e-05 Eh/bohr
Max. Displacement        TolMAXD  ....  4.0000e-03 bohr
RMS Displacement         TolRMSD  ....  2.0000e-03 bohr
Strict Convergence                .... False

------------------------------------------------------------------------------
                        ORCA OPTIMIZATION COORDINATE SETUP
------------------------------------------------------------------------------

The optimization will be done in redundant internal coordinates (2022)
Making redundant internal coordinates   ...  (2022 redundants) done
Evaluating the initial hessian          ...  (Almloef) done
Evaluating the coordinates              ...  done
Calculating the B-matrix                .... done
Calculating the G-matrix                .... done
Diagonalizing the G-matrix              .... done
Small eigenvalue found = 4.170e-03
Small eigenvalue found = 6.148e-03
Small eigenvalue found = 1.592e-02
Small eigenvalue found = 1.836e-02
Small eigenvalue found = 2.389e-02
The first mode is                       ....   68
The number of degrees of freedom        ....   99

    -----------------------------------------------------------------
                    Redundant Internal Coordinates


    -----------------------------------------------------------------
         Definition                    Initial Value    Approx d2E/dq
    -----------------------------------------------------------------
      1. B(C   6,N   2)                  1.3656         0.612150   
      2. B(C   7,N   2)                  1.4645         0.425541   
      3. B(C   8,S   0)                  1.7201         0.500955   
      4. B(C   8,C   6)                  1.3745         0.661288   
      5. B(C   9,C   8)                  1.4762         0.455164   
      6. B(C  10,C   7)                  1.4864         0.438503   
      7. B(C  11,S   0)                  1.7107         0.518618   
      8. B(C  11,N   2)                  1.3047         0.765518   
      9. B(C  12,C   6)                  1.4703         0.465164   
     10. B(C  13,C   9)                  1.5394         0.360946   
     11. B(C  13,O   1)                  1.4222         0.497155   
     12. B(C  14,C  10)                  1.3799         0.648425   
     13. B(C  14,N   5)                  1.4168         0.507158   
     14. B(C  14,N   3)                  1.3493         0.649899   
     15. B(C  15,N   4)                  1.3493         0.649840   
     16. B(C  15,C  10)                  1.3800         0.648182   
     17. B(C  16,N   4)                  1.3467         0.656193   
     18. B(C  16,N   3)                  1.3467         0.656089   
     19. B(C  17,C  16)                  1.4911         0.430913   
     20. B(H  18,C   7)                  1.0950         0.353507   
     21. B(H  19,C   7)                  1.0940         0.354868   
     22. B(H  20,C   9)                  1.0981         0.349593   
     23. B(H  21,C   9)                  1.0976         0.350194   
     24. B(H  22,C  11)                  1.0745         0.381251   
     25. B(H  23,C  12)                  1.0947         0.353877   
     26. B(H  24,C  12)                  1.0947         0.353957   
     27. B(H  25,C  12)                  1.0950         0.353499   
     28. B(H  26,C  13)                  1.0954         0.353027   
     29. B(H  27,C  13)                  1.0949         0.353628   
     30. B(H  28,C  15)                  1.0856         0.366032   
     31. B(H  29,N   5)                  1.0112         0.430826   
     32. B(H  30,N   5)                  1.0134         0.427295   
     33. B(H  31,O   1)                  0.9725         0.496678   
     34. B(H  32,C  17)                  1.0945         0.354232   
     35. B(H  33,C  17)                  1.0945         0.354163   
     36. B(H  34,C  17)                  1.0939         0.354947   
     37. A(C   8,S   0,C  11)           91.4929         0.450682   
     38. A(C  13,O   1,H  31)          107.4464         0.353653   
     39. A(C   6,N   2,C  11)          116.6385         0.443975   
     40. A(C   7,N   2,C  11)          120.5854         0.415930   
     41. A(C   6,N   2,C   7)          122.7761         0.399798   
     42. A(C  14,N   3,C  16)          114.9500         0.436469   
     43. A(C  15,N   4,C  16)          114.9527         0.436475   
     44. A(C  14,N   5,H  29)          119.1091         0.346427   
     45. A(C  14,N   5,H  30)          115.6769         0.345948   
     46. A(H  29,N   5,H  30)          116.3877         0.302437   
     47. A(C   8,C   6,C  12)          129.4004         0.417092   
     48. A(N   2,C   6,C  12)          119.0780         0.408755   
     49. A(N   2,C   6,C   8)          111.5215         0.435257   
     50. A(C  10,C   7,H  19)          107.6130         0.332203   
     51. A(N   2,C   7,H  19)          112.1113         0.328570   
     52. A(C  10,C   7,H  18)          113.5467         0.331992   
     53. A(N   2,C   7,C  10)          110.3062         0.379585   
     54. A(H  18,C   7,H  19)          104.8034         0.289332   
     55. A(N   2,C   7,H  18)          108.4010         0.328362   
     56. A(S   0,C   8,C   6)          109.9546         0.446066   
     57. A(C   6,C   8,C   9)          129.9342         0.415482   
     58. A(S   0,C   8,C   9)          120.1112         0.417119   
     59. A(C   8,C   9,C  13)          113.2020         0.373672   
     60. A(C  13,C   9,H  20)          108.7811         0.320935   
     61. A(H  20,C   9,H  21)          104.2936         0.288229   
     62. A(C   8,C   9,H  21)          110.1958         0.333530   
     63. A(C   8,C   9,H  20)          111.0439         0.333435   
     64. A(C  13,C   9,H  21)          108.9240         0.321025   
     65. A(C  14,C  10,C  15)          115.6336         0.441110   
     66. A(C   7,C  10,C  15)          120.7894         0.411275   
     67. A(C   7,C  10,C  14)          123.5770         0.411302   
     68. A(S   0,C  11,N   2)          110.3924         0.457938   
     69. A(N   2,C  11,H  22)          128.8374         0.367100   
     70. A(S   0,C  11,H  22)          120.7667         0.363777   
     71. A(H  23,C  12,H  25)          106.4149         0.289204   
     72. A(H  24,C  12,H  25)          106.8613         0.289215   
     73. A(C   6,C  12,H  25)          111.3392         0.335259   
     74. A(H  23,C  12,H  24)          109.4079         0.289263   
     75. A(C   6,C  12,H  24)          111.1392         0.335331   
     76. A(C   6,C  12,H  23)          111.4637         0.335318   
     77. A(O   1,C  13,C   9)          110.4183         0.377025   
     78. A(H  26,C  13,H  27)          107.8516         0.289112   
     79. A(C   9,C  13,H  27)          110.8734         0.321538   
     80. A(O   1,C  13,H  27)          107.9364         0.336958   
     81. A(C   9,C  13,H  26)          111.1970         0.321448   
     82. A(O   1,C  13,H  26)          108.4491         0.336862   
     83. A(N   3,C  14,N   5)          118.0229         0.416799   
     84. A(N   5,C  14,C  10)          118.2188         0.419349   
     85. A(N   3,C  14,C  10)          123.7583         0.438422   
     86. A(C  10,C  15,H  28)          121.5760         0.356565   
     87. A(N   4,C  15,H  28)          114.6711         0.354517   
     88. A(N   4,C  15,C  10)          123.7526         0.438385   
     89. A(N   4,C  16,C  17)          116.5272         0.408249   
     90. A(N   3,C  16,C  17)          116.5200         0.408237   
     91. A(N   3,C  16,N   4)          126.9528         0.437228   
     92. A(H  33,C  17,H  34)          108.7283         0.289427   
     93. A(H  32,C  17,H  34)          108.6726         0.289435   
     94. A(C  16,C  17,H  34)          109.7273         0.331256   
     95. A(H  32,C  17,H  33)          108.0289         0.289335   
     96. A(C  16,C  17,H  33)          110.7271         0.331135   
     97. A(C  16,C  17,H  32)          110.8934         0.331146   
     98. D(C  12,C   6,N   2,C   7)      0.0656         0.030284   
     99. D(C  12,C   6,N   2,C  11)   -179.9495         0.030284   
    100. D(C   8,C   6,N   2,C  11)     -0.0286         0.030284   
    101. D(C   8,C   6,N   2,C   7)    179.9864         0.030284   
    102. D(H  19,C   7,N   2,C   6)    -15.1024         0.015439   
    103. D(C  10,C   7,N   2,C  11)     45.0065         0.015439   
    104. D(H  18,C   7,N   2,C  11)    -79.8849         0.015439   
    105. D(C  10,C   7,N   2,C   6)   -135.0091         0.015439   
    106. D(H  18,C   7,N   2,C   6)    100.0995         0.015439   
    107. D(C   9,C   8,C   6,N   2)   -179.9849         0.030523   
    108. D(S   0,C   8,C   6,N   2)      0.0521         0.030523   
    109. D(S   0,C   8,C   6,C  12)    179.9626         0.030523   
    110. D(C   9,C   8,C   6,C  12)     -0.0745         0.030523   
    111. D(C   6,C   8,S   0,C  11)     -0.0488         0.005220   
    112. D(C   9,C   8,S   0,C  11)    179.9840         0.005220   
    113. D(H  21,C   9,C   8,S   0)   -147.7893         0.015276   
    114. D(H  20,C   9,C   8,C   6)    147.2998         0.015276   
    115. D(H  20,C   9,C   8,S   0)    -32.7405         0.015276   
    116. D(C  13,C   9,C   8,C   6)    -90.0008         0.015276   
    117. D(C  13,C   9,C   8,S   0)     89.9589         0.015276   
    118. D(C  15,C  10,C   7,H  18)   -148.1007         0.014190   
    119. D(C  15,C  10,C   7,N   2)     90.0013         0.014190   
    120. D(C  14,C  10,C   7,H  19)    147.4168         0.014190   
    121. D(C  14,C  10,C   7,H  18)     31.9008         0.014190   
    122. D(C  14,C  10,C   7,N   2)    -89.9972         0.014190   
    123. D(H  22,C  11,N   2,C   6)   -179.3211         0.049441   
    124. D(S   0,C  11,N   2,C   7)    179.9759         0.049441   
    125. D(S   0,C  11,N   2,C   6)     -0.0094         0.049441   
    126. D(N   2,C  11,S   0,C   8)      0.0336         0.005501   
    127. D(H  22,C  11,N   2,C   7)      0.6642         0.049441   
    128. D(H  22,C  11,S   0,C   8)    179.4096         0.005501   
    129. D(H  25,C  12,C   6,N   2)   -174.1532         0.015952   
    130. D(H  24,C  12,C   6,C   8)   -113.0656         0.015952   
    131. D(H  24,C  12,C   6,N   2)     66.8391         0.015952   
    132. D(H  23,C  12,C   6,C   8)    124.6016         0.015952   
    133. D(H  23,C  12,C   6,N   2)    -55.4937         0.015952   
    134. D(H  26,C  13,C   9,H  21)    -63.8196         0.010448   
    135. D(H  26,C  13,C   9,H  20)   -176.9150         0.010448   
    136. D(H  26,C  13,C   9,C   8)     59.1387         0.010448   
    137. D(O   1,C  13,C   9,H  21)     56.6148         0.010448   
    138. D(O   1,C  13,C   9,H  20)    -56.4807         0.010448   
    139. D(O   1,C  13,C   9,C   8)    179.5730         0.010448   
    140. D(H  27,C  13,O   1,H  31)    179.3731         0.019533   
    141. D(H  26,C  13,O   1,H  31)     62.7796         0.019533   
    142. D(C   9,C  13,O   1,H  31)    -59.2873         0.019533   
    143. D(N   5,C  14,C  10,C   7)     -0.0029         0.029265   
    144. D(N   3,C  14,C  10,C  15)     -0.0087         0.029265   
    145. D(N   3,C  14,C  10,C   7)    179.9899         0.029265   
    146. D(C  10,C  14,N   5,H  30)    178.2108         0.020353   
    147. D(C  10,C  14,N   5,H  29)    -35.4718         0.020353   
    148. D(N   3,C  14,N   5,H  30)     -1.7825         0.020353   
    149. D(N   3,C  14,N   5,H  29)    144.5349         0.020353   
    150. D(C  10,C  14,N   3,C  16)     -0.0043         0.031214   
    151. D(N   5,C  14,C  10,C  15)    179.9985         0.029265   
    152. D(N   5,C  14,N   3,C  16)    179.9885         0.031214   
    153. D(H  28,C  15,C  10,C  14)    179.8204         0.029242   
    154. D(H  28,C  15,C  10,C   7)     -0.1782         0.029242   
    155. D(N   4,C  15,C  10,C  14)      0.0147         0.029242   
    156. D(N   4,C  15,C  10,C   7)   -179.9840         0.029242   
    157. D(H  28,C  15,N   4,C  16)   -179.8246         0.031208   
    158. D(C  10,C  15,N   4,C  16)     -0.0068         0.031208   
    159. D(C  17,C  16,N   3,C  14)    179.9938         0.031862   
    160. D(N   4,C  16,N   3,C  14)      0.0138         0.031862   
    161. D(C  17,C  16,N   4,C  15)   -179.9885         0.031873   
    162. D(N   3,C  16,N   4,C  15)     -0.0086         0.031873   
    163. D(H  34,C  17,C  16,N   3)    -92.9081         0.013712   
    164. D(H  33,C  17,C  16,N   4)    -32.9524         0.013712   
    165. D(H  33,C  17,C  16,N   3)    147.0655         0.013712   
    166. D(H  32,C  17,C  16,N   4)   -152.8635         0.013712   
    167. D(H  32,C  17,C  16,N   3)     27.1544         0.013712   
    -----------------------------------------------------------------

Number of atoms                         .... 35
Number of degrees of freedom            .... 167


         *************************************************************
         *                GEOMETRY OPTIMIZATION CYCLE   1            *
         *************************************************************
---------------------------------
CARTESIAN COORDINATES (ANGSTROEM)
---------------------------------
  S      1.948200   -1.403100    1.196000
  O      6.456000    0.091400    0.446600
  N      0.664700   -0.106800   -0.494100
  N     -3.720100   -0.863900    0.040400
  N     -3.346800    1.425300    0.694400
  N     -2.122900   -2.001100   -1.293700
  C      1.855200    0.557900   -0.418900
  C     -0.422000    0.311200   -1.382500
  C      2.705400   -0.031300    0.486300
  C      4.076100    0.346300    0.883600
  C     -1.720500    0.278500   -0.659900
  C      0.529400   -1.153100    0.273500
  C      2.064900    1.745500   -1.260000
  C      5.162900   -0.319700    0.020500
  C     -2.540900   -0.830100   -0.614500
  C     -2.179100    1.388800    0.019300
  C     -4.056600    0.281300    0.664000
  C     -5.354000    0.282800    1.399000
  H     -0.402000   -0.322800   -2.275100
  H     -0.278100    1.328300   -1.758800
  H      4.262600    0.101700    1.937700
  H      4.198900    1.435800    0.832400
  H     -0.309500   -1.818300    0.364200
  H      1.902300    1.520200   -2.318900
  H      1.405600    2.565200   -0.957100
  H      3.091800    2.116500   -1.176700
  H      5.046100   -0.056200   -1.036300
  H      5.111900   -1.410400    0.102100
  H     -1.609300    2.312300    0.049300
  H     -1.618300   -1.910600   -2.165300
  H     -2.740500   -2.800400   -1.211700
  H      6.496900    1.059300    0.361800
  H     -5.616200   -0.726900    1.730100
  H     -5.297500    0.925300    2.283300
  H     -6.148400    0.654300    0.745100

----------------------------
CARTESIAN COORDINATES (A.U.)
----------------------------
  NO LB      ZA    FRAG     MASS         X           Y           Z
   0 S    16.0000    0    32.060    3.681564   -2.651475    2.260112
   1 O     8.0000    0    15.999   12.200072    0.172721    0.843952
   2 N     7.0000    0    14.007    1.256101   -0.201823   -0.933714
   3 N     7.0000    0    14.007   -7.029970   -1.632534    0.076345
   4 N     7.0000    0    14.007   -6.324535    2.693427    1.312226
   5 N     7.0000    0    14.007   -4.011700   -3.781531   -2.444739
   6 C     6.0000    0    12.011    3.505820    1.054278   -0.791606
   7 C     6.0000    0    12.011   -0.797464    0.588083   -2.612546
   8 C     6.0000    0    12.011    5.112465   -0.059148    0.918974
   9 C     6.0000    0    12.011    7.702713    0.654412    1.669762
  10 C     6.0000    0    12.011   -3.251274    0.526289   -1.247030
  11 C     6.0000    0    12.011    1.000421   -2.179043    0.516840
  12 C     6.0000    0    12.011    3.902095    3.298517   -2.381055
  13 C     6.0000    0    12.011    9.756467   -0.604145    0.038739
  14 C     6.0000    0    12.011   -4.801605   -1.568662   -1.161237
  15 C     6.0000    0    12.011   -4.117902    2.624452    0.036472
  16 C     6.0000    0    12.011   -7.665863    0.531580    1.254778
  17 C     6.0000    0    12.011  -10.117594    0.534415    2.643727
  18 H     1.0000    0     1.008   -0.759670   -0.610004   -4.299316
  19 H     1.0000    0     1.008   -0.525533    2.510123   -3.323650
  20 H     1.0000    0     1.008    8.055147    0.192185    3.661722
  21 H     1.0000    0     1.008    7.934771    2.713269    1.573008
  22 H     1.0000    0     1.008   -0.584870   -3.436089    0.688238
  23 H     1.0000    0     1.008    3.594826    2.872762   -4.382086
  24 H     1.0000    0     1.008    2.656199    4.847525   -1.808657
  25 H     1.0000    0     1.008    5.842655    3.999605   -2.223641
  26 H     1.0000    0     1.008    9.535747   -0.106203   -1.958323
  27 H     1.0000    0     1.008    9.660091   -2.665270    0.192941
  28 H     1.0000    0     1.008   -3.041136    4.369614    0.093163
  29 H     1.0000    0     1.008   -3.058144   -3.610511   -4.091824
  30 H     1.0000    0     1.008   -5.178794   -5.291989   -2.289781
  31 H     1.0000    0     1.008   12.277362    2.001787    0.683703
  32 H     1.0000    0     1.008  -10.613080   -1.373642    3.269415
  33 H     1.0000    0     1.008  -10.010824    1.748564    4.314812
  34 H     1.0000    0     1.008  -11.618792    1.236448    1.408035

--------------------------------
INTERNAL COORDINATES (ANGSTROEM)
--------------------------------
 S      0   0   0     0.000000000000     0.00000000     0.00000000
 O      1   0   0     4.807846862162     0.00000000     0.00000000
 N      1   2   0     2.486805973533   102.47098519     0.00000000
 N      3   1   2     4.481669521506   109.62445852   185.20195442
 N      4   3   1     2.409876662819    73.75990730   111.04220704
 N      4   3   1     2.371517339173    49.83281037   269.88939753
 C      3   1   2     1.365566322080    76.48794212   343.36798988
 C      3   1   2     1.464546158371   160.73596180   163.31374435
 C      7   3   1     1.374548551343   111.52153834   359.96513412
 C      9   7   3     1.476227468922   129.93416518   180.01505423
 C      8   3   1     1.486378922079   110.30616032    45.05360229
 C      3   1   2     1.304706687344    40.15057333   163.37663496
 C      7   3   1     1.470311892083   119.07800938   180.04427325
 C      2   1   3     1.422206746574    26.41035006   319.20821143
 C      4   3   1     1.349277247270    23.48301807   237.81884228
 C      5   4   3     1.349301875045    88.42860266    18.62483982
 C      5   4   3     1.346653704558    26.52405914   198.63260003
 C     17   5   4     1.491131788274   116.52717681   180.02008082
 H      8   3   1     1.095030026986   108.40099887   280.16218417
 H      8   3   1     1.093984145223   112.11133759   164.96037049
 H     10   9   7     1.098061118518   111.04386375   147.29979703
 H     10   9   7     1.097593517656   110.19583739    32.25102223
 H     12   3   1     1.074463000759   128.83740307   180.68831288
 H     13   7   3     1.094745659959   111.46367777   304.50631801
 H     13   7   3     1.094683968093   111.13918348    66.83914701
 H     13   7   3     1.095035844162   111.33920741   185.84682625
 H     14   2   1     1.095399803725   108.44910800   165.56261947
 H     14   2   1     1.094936550673   107.93640103   282.15605606
 H     16   5   4     1.085552527518   114.67110857   180.17155811
 H      6   4   3     1.011186417037   141.08360868   282.54710923
 H      6   4   3     1.013426983063    85.54071093   154.73623714
 H      2   1   3     0.972468128012   111.24833901    45.78238339
 H     18  17   5     1.094472539628   110.89341676   207.13649391
 H     18  17   5     1.094525006567   110.72708171   327.04759873
 H     18  17   5     1.093923589653   109.72726910    87.07393174

---------------------------
INTERNAL COORDINATES (A.U.)
---------------------------
 S      0   0   0     0.000000000000     0.00000000     0.00000000
 O      1   0   0     9.085513863319     0.00000000     0.00000000
 N      1   2   0     4.699382238177   102.47098519     0.00000000
 N      3   1   2     8.469128018389   109.62445852   185.20195442
 N      4   3   1     4.554006909256    73.75990730   111.04220704
 N      4   3   1     4.481518292883    49.83281037   269.88939753
 C      3   1   2     2.580546366438    76.48794212   343.36798988
 C      3   1   2     2.767591149808   160.73596180   163.31374435
 C      7   3   1     2.597520319817   111.52153834   359.96513412
 C      9   7   3     2.789665627634   129.93416518   180.01505423
 C      8   3   1     2.808849093962   110.30616032    45.05360229
 C      3   1   2     2.465538324176    40.15057333   163.37663496
 C      7   3   1     2.778486807484   119.07800938   180.04427325
 C      2   1   3     2.687581256840    26.41035006   319.20821143
 C      4   3   1     2.549764476071    23.48301807   237.81884228
 C      5   4   3     2.549811015822    88.42860266    18.62483982
 C      5   4   3     2.544806698845    26.52405914   198.63260003
 C     17   5   4     2.817830709421   116.52717681   180.02008082
 H      8   3   1     2.069306859423   108.40099887   280.16218417
 H      8   3   1     2.067330429324   112.11133759   164.96037049
 H     10   9   7     2.075034792305   111.04386375   147.29979703
 H     10   9   7     2.074151154737   110.19583739    32.25102223
 H     12   3   1     2.030440812466   128.83740307   180.68831288
 H     13   7   3     2.068769483622   111.46367777   304.50631801
 H     13   7   3     2.068652902890   111.13918348    66.83914701
 H     13   7   3     2.069317852294   111.33920741   185.84682625
 H     14   2   1     2.070005636191   108.44910800   165.56261947
 H     14   2   1     2.069130214793   107.93640103   282.15605606
 H     16   5   4     2.051396980994   114.67110857   180.17155811
 H      6   4   3     1.910865398541   141.08360868   282.54710923
 H      6   4   3     1.915099454715    85.54071093   154.73623714
 H      2   1   3     1.837698435911   111.24833901    45.78238339
 H     18  17   5     2.068253360994   110.89341676   207.13649391
 H     18  17   5     2.068352509140   110.72708171   327.04759873
 H     18  17   5     2.067215995881   109.72726910    87.07393174

---------------------
BASIS SET INFORMATION
---------------------
There are 5 groups of distinct atoms

 Group   1 Type S   : 14s9p1d contracted to 5s4p1d pattern {73211/6111/1}
 Group   2 Type O   : 11s6p2d contracted to 5s3p2d pattern {62111/411/11}
 Group   3 Type N   : 11s6p1d contracted to 5s3p1d pattern {62111/411/1}
 Group   4 Type C   : 11s6p1d contracted to 5s3p1d pattern {62111/411/1}
 Group   5 Type H   : 5s contracted to 3s pattern {311}

Atom   0S    basis set group =>   1
Atom   1O    basis set group =>   2
Atom   2N    basis set group =>   3
Atom   3N    basis set group =>   3
Atom   4N    basis set group =>   3
Atom   5N    basis set group =>   3
Atom   6C    basis set group =>   4
Atom   7C    basis set group =>   4
Atom   8C    basis set group =>   4
Atom   9C    basis set group =>   4
Atom  10C    basis set group =>   4
Atom  11C    basis set group =>   4
Atom  12C    basis set group =>   4
Atom  13C    basis set group =>   4
Atom  14C    basis set group =>   4
Atom  15C    basis set group =>   4
Atom  16C    basis set group =>   4
Atom  17C    basis set group =>   4
Atom  18H    basis set group =>   5
Atom  19H    basis set group =>   5
Atom  20H    basis set group =>   5
Atom  21H    basis set group =>   5
Atom  22H    basis set group =>   5
Atom  23H    basis set group =>   5
Atom  24H    basis set group =>   5
Atom  25H    basis set group =>   5
Atom  26H    basis set group =>   5
Atom  27H    basis set group =>   5
Atom  28H    basis set group =>   5
Atom  29H    basis set group =>   5
Atom  30H    basis set group =>   5
Atom  31H    basis set group =>   5
Atom  32H    basis set group =>   5
Atom  33H    basis set group =>   5
Atom  34H    basis set group =>   5
---------------------------------
AUXILIARY/J BASIS SET INFORMATION
---------------------------------
There are 5 groups of distinct atoms

 Group   1 Type S   : 14s5p5d2f1g contracted to 8s4p3d1f1g pattern {71111111/2111/311/2/1}
 Group   2 Type O   : 8s3p3d contracted to 6s3p3d pattern {311111/111/111}
 Group   3 Type N   : 8s3p3d contracted to 6s3p3d pattern {311111/111/111}
 Group   4 Type C   : 8s3p3d contracted to 6s3p3d pattern {311111/111/111}
 Group   5 Type H   : 5s2p contracted to 3s1p pattern {311/2}

Atom   0S    basis set group =>   1
Atom   1O    basis set group =>   2
Atom   2N    basis set group =>   3
Atom   3N    basis set group =>   3
Atom   4N    basis set group =>   3
Atom   5N    basis set group =>   3
Atom   6C    basis set group =>   4
Atom   7C    basis set group =>   4
Atom   8C    basis set group =>   4
Atom   9C    basis set group =>   4
Atom  10C    basis set group =>   4
Atom  11C    basis set group =>   4
Atom  12C    basis set group =>   4
Atom  13C    basis set group =>   4
Atom  14C    basis set group =>   4
Atom  15C    basis set group =>   4
Atom  16C    basis set group =>   4
Atom  17C    basis set group =>   4
Atom  18H    basis set group =>   5
Atom  19H    basis set group =>   5
Atom  20H    basis set group =>   5
Atom  21H    basis set group =>   5
Atom  22H    basis set group =>   5
Atom  23H    basis set group =>   5
Atom  24H    basis set group =>   5
Atom  25H    basis set group =>   5
Atom  26H    basis set group =>   5
Atom  27H    basis set group =>   5
Atom  28H    basis set group =>   5
Atom  29H    basis set group =>   5
Atom  30H    basis set group =>   5
Atom  31H    basis set group =>   5
Atom  32H    basis set group =>   5
Atom  33H    basis set group =>   5
Atom  34H    basis set group =>   5


           ************************************************************
           *        Program running with 16 parallel MPI-processes    *
           *              working on a common directory               *
           ************************************************************
------------------------------------------------------------------------------
                             ORCA STARTUP CALCULATIONS
                           -- RI-GTO INTEGRALS CHOSEN --
------------------------------------------------------------------------------
------------------------------------------------------------------------------
                   ___                                                        
                  /   \      - P O W E R E D   B Y -                         
                 /     \                                                     
                 |  |  |   _    _      __       _____    __    __             
                 |  |  |  | |  | |    /  \     |  _  \  |  |  /  |          
                  \  \/   | |  | |   /    \    | | | |  |  | /  /          
                 / \  \   | |__| |  /  /\  \   | |_| |  |  |/  /          
                |  |  |   |  __  | /  /__\  \  |    /   |      \           
                |  |  |   | |  | | |   __   |  |    \   |  |\   \          
                \     /   | |  | | |  |  |  |  | |\  \  |  | \   \       
                 \___/    |_|  |_| |__|  |__|  |_| \__\ |__|  \__/        
                                                                              
                      - O R C A' S   B I G   F R I E N D -                    
                                      &                                       
                       - I N T E G R A L  F E E D E R -                       
                                                                              
 v1 FN, 2020, v2 2021, v3 2022-2024                                           
------------------------------------------------------------------------------


----------------------
SHARK INTEGRAL PACKAGE
----------------------

Number of atoms                             ...     35
Number of basis functions                   ...    401
Number of shells                            ...    215
Maximum angular momentum                    ...      2
Integral batch strategy                     ... SHARK/LIBINT Hybrid
RI-J (if used) integral strategy            ... SPLIT-RIJ (Revised 2003 algorithm where possible)
Printlevel                                  ...      1
Contraction scheme used                     ... SEGMENTED contraction
Prescreening option                         ... SCHWARTZ
   Thresh                                   ... 2.500e-11
   Tcut                                     ... 2.500e-12
   Tpresel                                  ... 2.500e-12 
Coulomb Range Separation                    ... NOT USED
Exchange Range Separation                   ... NOT USED
Multipole approximations                    ... NOT USED
Finite Nucleus Model                        ... NOT USED
CABS basis                                  ... NOT available
Auxiliary Coulomb fitting basis             ... AVAILABLE
   # of basis functions in Aux-J            ...    663
   # of shells in Aux-J                     ...    289
   Maximum angular momentum in Aux-J        ...      4
Auxiliary J/K fitting basis                 ... NOT available
Auxiliary Correlation fitting basis         ... NOT available
Auxiliary 'external' fitting basis          ... NOT available

Checking pre-screening integrals            ... done (  0.0 sec) Dimension = 215
Check shell pair data                       ... done (  0.0 sec)
Shell pair information
Shell pair cut-off parameter TPreSel        ...   2.5e-12
Total number of shell pairs                 ...     23220
Shell pairs after pre-screening             ...     16909
Total number of primitive shell pairs       ...     87201
Primitive shell pairs kept                  ...     40530
          la=0 lb=0:   6845 shell pairs
          la=1 lb=0:   6042 shell pairs
          la=1 lb=1:   1322 shell pairs
          la=2 lb=0:   1768 shell pairs
          la=2 lb=1:    804 shell pairs
          la=2 lb=2:    128 shell pairs

Calculating one electron integrals          ... done (  0.0 sec)
Calculating RI/J V-Matrix + Cholesky decomp.... done (  0.0 sec)
Calculating Nuclear repulsion               ... done (  0.0 sec) ENN=   1437.193408450017 Eh

Diagonalization of the overlap matrix:
Smallest eigenvalue                        ... 5.286e-05
Time for diagonalization                   ...    0.013 sec
Threshold for overlap eigenvalues          ... 1.000e-07
Number of eigenvalues below threshold      ... 0
Time for construction of square roots      ...    0.007 sec
Total time needed                          ...    0.022 sec

-------------------
DFT GRID GENERATION
-------------------

General Integration Accuracy     IntAcc      ... 4.959
Radial Grid Type                 RadialGrid  ... OptM3 with GC (2021)
Angular Grid (max. ang.)         AngularGrid ... 6 (Lebedev-590)
Angular grid pruning method      GridPruning ... 4 (adaptive)
Weight generation scheme         WeightScheme... mBecke (2022)
Basis function cutoff            BFCut       ... 1.0000e-11
Integration weight cutoff        WCut        ... 1.0000e-14
Partially contracted basis set               ... off
Rotationally invariant grid construction     ... off
Angular grids for H and He will be reduced by one unit
Diffuse basis detected: some atoms will have their outermost
                        angular grid increased by 1.

Total number of grid points                  ...   403600
Total number of batches                      ...     6323
Average number of points per batch           ...       63
Average number of grid points per atom       ...    11531
Initializing property integral containers    ... done (  0.0 sec)

SHARK setup successfully completed in   3.1 seconds

Maximum memory used throughout the entire STARTUP-calculation: 92.8 MB


           ************************************************************
           *        Program running with 16 parallel MPI-processes    *
           *              working on a common directory               *
           ************************************************************
-------------------------------------------------------------------------------
                                 ORCA GUESS
                   Start orbitals & Density for SCF / CASSCF
-------------------------------------------------------------------------------

------------
SCF SETTINGS
------------
Hamiltonian:
 Density Functional     Method          .... DFT(GTOs)
 Exchange Functional    Exchange        .... B973C
 Correlation Functional Correlation     .... B973C
 Gradients option       PostSCFGGA      .... off
 RI-approximation to the Coulomb term is turned on
   Number of AuxJ basis functions       .... 663


General Settings:
 Integral files         IntName         .... m1_01_Vitamin_B1-B97-3C-TZ
 Hartree-Fock type      HFTyp           .... RHF
 Total Charge           Charge          ....    1
 Multiplicity           Mult            ....    1
 Number of Electrons    NEL             ....  140
 Basis Dimension        Dim             ....  401
 Nuclear Repulsion      ENuc            ....   1437.1934084500 Eh

Convergence Acceleration:
 AO-DIIS                CNVDIIS         .... on
   Start iteration      DIISMaxIt       ....    12
   Startup error        DIISStart       ....  0.200000
   # of expansion vecs  DIISMaxEq       ....     5
   Bias factor          DIISBfac        ....   1.050
   Max. coefficient     DIISMaxC        ....  10.000
 MO-DIIS                CNVKDIIS        .... off
 Trust-Rad. Augm. Hess. CNVTRAH         .... off
 SOSCF                  CNVSOSCF        .... on
   Start iteration      SOSCFMaxIt      ....   150
   Startup grad/error   SOSCFStart      ....  0.003300
   Hessian update       SOSCFHessUp     .... L-BFGS
 Level Shifting         CNVShift        .... on
   Level shift para.    LevelShift      ....    0.2500
   Turn off err/grad.   ShiftErr        ....    0.0010
 Zerner damping         CNVZerner       .... off
 Static damping         CNVDamp         .... on
   Fraction old density DampFac         ....    0.7000
   Max. Damping (<1)    DampMax         ....    0.9800
   Min. Damping (>=0)   DampMin         ....    0.0000
   Turn off err/grad.   DampErr         ....    0.1000

SCF Procedure:
 Maximum # iterations   MaxIter         ....   800
 SCF integral mode      SCFMode         .... Direct
   Integral package                     .... SHARK and LIBINT hybrid scheme
 Reset frequency        DirectResetFreq ....    20
 Integral Threshold     Thresh          ....  2.500e-11 Eh
 Primitive CutOff       TCut            ....  2.500e-12 Eh

Convergence Tolerance:
 Convergence Check Mode ConvCheckMode   .... Total+1el-Energy
 Convergence forced     ConvForced      .... 0
 Energy Change          TolE            ....  1.000e-08 Eh
 1-El. energy change                    ....  1.000e-05 Eh
 Orbital Gradient       TolG            ....  1.000e-05
 Orbital Rotation angle TolX            ....  1.000e-05
 DIIS Error             TolErr          ....  5.000e-07

--------------------------------
INITIAL GUESS: MINIMAL BASIS EHT
--------------------------------
The minimal basis has 111 functions
EHT matrix was diagonalized
Basis set overlap was calculated now projecting the orbitals
Using GuessMode=FMatrix for the initial guess
C*T matrix was formed
Effective Fockian was calculated
Effective Fockian was diagonalized
Initial density was built
                      ------------------
                      INITIAL GUESS DONE
                      ------------------
             **** ENERGY FILE WAS UPDATED (m1_01_Vitamin_B1-B97-3C-TZ.en.tmp) ****
Finished Guess after   0.2 sec
Maximum memory used throughout the entire GUESS-calculation: 31.3 MB


           ************************************************************
           *        Program running with 16 parallel MPI-processes    *
           *              working on a common directory               *
           ************************************************************

-------------------------------------------------------------------------------------------
                                      ORCA LEAN-SCF
                              memory conserving SCF solver
-------------------------------------------------------------------------------------------

----------------------------------------D-I-I-S--------------------------------------------
Iteration    Energy (Eh)           Delta-E    RMSDP     MaxDP     DIISErr   Damp  Time(sec)
-------------------------------------------------------------------------------------------
               ***  Starting incremental Fock matrix formation  ***
    1    -1156.3233761947831226     0.00e+00  5.21e-03  2.13e-01  8.22e-01  0.700   0.5
Warning: op=0 Small HOMO/LUMO gap (  -0.274) - skipping pre-diagonalization
         LevelShift set to 0.374 Eh
         Will do a full diagonalization
    2    -1157.2474339321588559    -9.24e-01  4.66e-03  3.17e-01  5.64e-01  0.700   0.6
    3    -1157.7436453694426746    -4.96e-01  2.64e-03  1.27e-01  3.81e-01  0.700   0.5
    4    -1158.1345867674635883    -3.91e-01  1.79e-03  6.10e-02  2.56e-01  0.700   0.5
                               ***Turning on AO-DIIS***
    5    -1158.4194551955815768    -2.85e-01  1.53e-03  5.30e-02  1.72e-01  0.700   0.5
    6    -1158.6192193071165093    -2.00e-01  1.23e-03  4.16e-02  1.20e-01  0.700   0.5
    7    -1158.7596223940822711    -1.40e-01  9.57e-04  3.22e-02  8.45e-02  0.700   0.5
    8    -1158.8587184916955266    -9.91e-02  2.38e-03  7.79e-02  5.98e-02  0.000   0.5
    9    -1159.0905530134068613    -2.32e-01  3.48e-04  1.53e-02  9.20e-03  0.000   0.5
   10    -1159.0921811574908133    -1.63e-03  2.26e-04  1.28e-02  4.26e-03  0.000   0.5
                              *** Initializing SOSCF ***
---------------------------------------S-O-S-C-F--------------------------------------
Iteration    Energy (Eh)           Delta-E    RMSDP     MaxDP     MaxGrad    Time(sec)
--------------------------------------------------------------------------------------
   11    -1159.0928202965524179    -6.39e-04  1.74e-04  1.15e-02  2.51e-03     0.5
               *** Restarting incremental Fock matrix formation ***
   12    -1159.0931977417517373    -3.77e-04  6.20e-04  4.39e-02  5.34e-03     0.6
   13    -1159.0938643046397374    -6.67e-04  2.40e-04  1.05e-02  7.65e-04     0.5
   14    -1159.0937345963302505     1.30e-04  1.30e-04  5.42e-03  1.96e-03     0.5
   15    -1159.0939062610923429    -1.72e-04  4.89e-05  2.97e-03  2.94e-04     0.5
   16    -1159.0938934772016182     1.28e-05  3.47e-05  2.70e-03  5.98e-04     0.5
   17    -1159.0939093588349351    -1.59e-05  1.56e-05  9.99e-04  6.82e-05     0.5
   18    -1159.0939084666720191     8.92e-07  1.06e-05  7.11e-04  1.89e-04     0.5
   19    -1159.0939095676667421    -1.10e-06  4.12e-06  1.86e-04  2.21e-05     0.5
   20    -1159.0939095103090040     5.74e-08  2.53e-06  1.04e-04  4.59e-05     0.5
   21    -1159.0939095776579961    -6.73e-08  2.16e-06  1.39e-04  5.23e-06     0.5
   22    -1159.0939095873345650    -9.68e-09  1.48e-06  8.88e-05  9.75e-06     0.5
                 **** Energy Check signals convergence ****

               *****************************************************
               *                     SUCCESS                       *
               *           SCF CONVERGED AFTER  22 CYCLES          *
               *****************************************************

             **** ENERGY FILE WAS UPDATED (m1_01_Vitamin_B1-B97-3C-TZ.en.tmp) ****

----------------
TOTAL SCF ENERGY
----------------

Total Energy       :      -1159.09390958733457 Eh          -31540.54877 eV

Components:
Nuclear Repulsion  :       1437.19340845001716 Eh           39108.02086 eV
Electronic Energy  :      -2596.28731803735172 Eh          -70648.56963 eV
One Electron Energy:      -4418.44238565656724 Eh         -120231.92979 eV
Two Electron Energy:       1822.15506761921552 Eh           49583.36016 eV

Virial components:
Potential Energy   :      -2314.57340932044735 Eh          -62982.74445 eV
Kinetic Energy     :       1155.47949973311279 Eh           31442.19568 eV
Virial Ratio       :          2.00312806056279

DFT components:
N(Alpha)           :       69.999990018356 electrons
N(Beta)            :       69.999990018356 electrons
N(Total)           :      139.999980036712 electrons
E(XC)              :     -132.557037460112 Eh       

---------------
SCF CONVERGENCE
---------------

  Last Energy change         ...    9.6766e-09  Tolerance :   1.0000e-08
  Last MAX-Density change    ...    8.8758e-05  Tolerance :   1.0000e-07
  Last RMS-Density change    ...    1.4822e-06  Tolerance :   5.0000e-09
  Last DIIS Error            ...    2.5074e-03  Tolerance :   5.0000e-07
  Last Orbital Gradient      ...    9.7493e-06  Tolerance :   1.0000e-05
  Last Orbital Rotation      ...    1.2749e-05  Tolerance :   1.0000e-05


----------------
ORBITAL ENERGIES
----------------

  NO   OCC          E(Eh)            E(eV) 
   0   2.0000     -88.246292     -2401.3037 
   1   2.0000     -18.859910      -513.2042 
   2   2.0000     -14.251260      -387.7965 
   3   2.0000     -14.135666      -384.6510 
   4   2.0000     -14.103504      -383.7759 
   5   2.0000     -14.095584      -383.5603 
   6   2.0000     -10.142197      -275.9832 
   7   2.0000     -10.115227      -275.2493 
   8   2.0000     -10.109187      -275.0850 
   9   2.0000     -10.105905      -274.9957 
  10   2.0000     -10.102102      -274.8922 
  11   2.0000     -10.075405      -274.1657 
  12   2.0000     -10.068772      -273.9852 
  13   2.0000     -10.061374      -273.7839 
  14   2.0000     -10.056663      -273.6557 
  15   2.0000     -10.050064      -273.4761 
  16   2.0000     -10.038759      -273.1685 
  17   2.0000      -9.975861      -271.4570 
  18   2.0000      -7.936591      -215.9656 
  19   2.0000      -5.966752      -162.3636 
  20   2.0000      -5.961150      -162.2111 
  21   2.0000      -5.959221      -162.1586 
  22   2.0000      -1.132408       -30.8144 
  23   2.0000      -1.056588       -28.7512 
  24   2.0000      -1.030992       -28.0547 
  25   2.0000      -0.972844       -26.4724 
  26   2.0000      -0.959758       -26.1163 
  27   2.0000      -0.914913       -24.8960 
  28   2.0000      -0.909868       -24.7588 
  29   2.0000      -0.882009       -24.0007 
  30   2.0000      -0.840660       -22.8755 
  31   2.0000      -0.815431       -22.1890 
  32   2.0000      -0.797925       -21.7127 
  33   2.0000      -0.763209       -20.7680 
  34   2.0000      -0.736539       -20.0422 
  35   2.0000      -0.720217       -19.5981 
  36   2.0000      -0.703034       -19.1305 
  37   2.0000      -0.681318       -18.5396 
  38   2.0000      -0.675161       -18.3721 
  39   2.0000      -0.651294       -17.7226 
  40   2.0000      -0.636509       -17.3203 
  41   2.0000      -0.609616       -16.5885 
  42   2.0000      -0.595925       -16.2160 
  43   2.0000      -0.589535       -16.0421 
  44   2.0000      -0.580522       -15.7968 
  45   2.0000      -0.567369       -15.4389 
  46   2.0000      -0.558070       -15.1859 
  47   2.0000      -0.549185       -14.9441 
  48   2.0000      -0.538650       -14.6574 
  49   2.0000      -0.530955       -14.4480 
  50   2.0000      -0.530837       -14.4448 
  51   2.0000      -0.517723       -14.0880 
  52   2.0000      -0.514425       -13.9982 
  53   2.0000      -0.510762       -13.8985 
  54   2.0000      -0.501834       -13.6556 
  55   2.0000      -0.493918       -13.4402 
  56   2.0000      -0.492299       -13.3961 
  57   2.0000      -0.464480       -12.6391 
  58   2.0000      -0.462075       -12.5737 
  59   2.0000      -0.457656       -12.4534 
  60   2.0000      -0.435713       -11.8564 
  61   2.0000      -0.432554       -11.7704 
  62   2.0000      -0.420152       -11.4329 
  63   2.0000      -0.413799       -11.2601 
  64   2.0000      -0.386906       -10.5283 
  65   2.0000      -0.375886       -10.2284 
  66   2.0000      -0.373553       -10.1649 
  67   2.0000      -0.345199        -9.3933 
  68   2.0000      -0.338457        -9.2099 
  69   2.0000      -0.326015        -8.8713 
  70   0.0000      -0.242980        -6.6118 
  71   0.0000      -0.183882        -5.0037 
  72   0.0000      -0.181696        -4.9442 
  73   0.0000      -0.177012        -4.8168 
  74   0.0000      -0.166233        -4.5234 
  75   0.0000      -0.126793        -3.4502 
  76   0.0000      -0.111188        -3.0256 
  77   0.0000      -0.101992        -2.7753 
  78   0.0000      -0.087609        -2.3840 
  79   0.0000      -0.077386        -2.1058 
  80   0.0000      -0.074505        -2.0274 
*Only the first 10 virtual orbitals were printed.

                    ********************************
                    * MULLIKEN POPULATION ANALYSIS *
                    ********************************

-----------------------
MULLIKEN ATOMIC CHARGES
-----------------------
   0 S :    0.289224
   1 O :   -0.519009
   2 N :    0.130898
   3 N :   -0.108235
   4 N :   -0.079202
   5 N :   -0.647459
   6 C :   -0.024556
   7 C :   -0.697822
   8 C :    0.143999
   9 C :   -0.418348
  10 C :    0.163365
  11 C :   -0.129863
  12 C :   -0.653740
  13 C :   -0.219683
  14 C :    0.116234
  15 C :   -0.158628
  16 C :    0.093464
  17 C :   -0.545530
  18 H :    0.263001
  19 H :    0.271776
  20 H :    0.215971
  21 H :    0.225237
  22 H :    0.306957
  23 H :    0.237468
  24 H :    0.229374
  25 H :    0.219273
  26 H :    0.179604
  27 H :    0.197171
  28 H :    0.172779
  29 H :    0.348635
  30 H :    0.373140
  31 H :    0.426156
  32 H :    0.194454
  33 H :    0.198647
  34 H :    0.205249
Sum of atomic charges:    1.0000000

--------------------------------
MULLIKEN REDUCED ORBITAL CHARGES
--------------------------------
  0 S s       :     5.892585  s :     5.892585
      pz      :     3.391960  p :     9.701342
      px      :     3.008112
      py      :     3.301271
      dz2     :     0.013417  d :     0.116850
      dxz     :     0.032801
      dyz     :     0.018416
      dx2y2   :     0.029882
      dxy     :     0.022334

  1 O s       :     3.826478  s :     3.826478
      pz      :     1.847864  p :     4.675753
      px      :     1.445054
      py      :     1.382835
      dz2     :     0.003790  d :     0.016778
      dxz     :     0.000475
      dyz     :     0.002946
      dx2y2   :     0.012530
      dxy     :    -0.002963

  2 N s       :     3.235520  s :     3.235520
      pz      :     1.253523  p :     3.572120
      px      :     1.147146
      py      :     1.171452
      dz2     :     0.010057  d :     0.061463
      dxz     :     0.012287
      dyz     :     0.010226
      dx2y2   :     0.016026
      dxy     :     0.012868

  3 N s       :     3.506131  s :     3.506131
      pz      :     1.118200  p :     3.557298
      px      :     1.148175
      py      :     1.290922
      dz2     :     0.005057  d :     0.044807
      dxz     :     0.008394
      dyz     :     0.008847
      dx2y2   :     0.015143
      dxy     :     0.007366

  4 N s       :     3.519183  s :     3.519183
      pz      :     1.195822  p :     3.515001
      px      :     1.043204
      py      :     1.275974
      dz2     :     0.006936  d :     0.045018
      dxz     :     0.008820
      dyz     :     0.006039
      dx2y2   :     0.012308
      dxy     :     0.010915

  5 N s       :     3.452366  s :     3.452366
      pz      :     1.377378  p :     4.164232
      px      :     1.536096
      py      :     1.250758
      dz2     :     0.007966  d :     0.030861
      dxz     :     0.005125
      dyz     :     0.004004
      dx2y2   :     0.003762
      dxy     :     0.010004

  6 C s       :     3.158381  s :     3.158381
      pz      :     0.962588  p :     2.804756
      px      :     0.900167
      py      :     0.942001
      dz2     :     0.011483  d :     0.061418
      dxz     :     0.010091
      dyz     :     0.009363
      dx2y2   :     0.013441
      dxy     :     0.017042

  7 C s       :     3.456693  s :     3.456693
      pz      :     0.986251  p :     3.185948
      px      :     0.902471
      py      :     1.297226
      dz2     :     0.008799  d :     0.055182
      dxz     :     0.015422
      dyz     :     0.011109
      dx2y2   :     0.012975
      dxy     :     0.006876

  8 C s       :     2.950891  s :     2.950891
      pz      :     1.057417  p :     2.857957
      px      :     0.926945
      py      :     0.873595
      dz2     :     0.008046  d :     0.047153
      dxz     :     0.011417
      dyz     :     0.005629
      dx2y2   :     0.010522
      dxy     :     0.011539

  9 C s       :     3.240819  s :     3.240819
      pz      :     1.126090  p :     3.133108
      px      :     0.876370
      py      :     1.130648
      dz2     :     0.013156  d :     0.044421
      dxz     :     0.007911
      dyz     :     0.003105
      dx2y2   :     0.013991
      dxy     :     0.006258

 10 C s       :     3.059467  s :     3.059467
      pz      :     0.964528  p :     2.730454
      px      :     0.812685
      py      :     0.953241
      dz2     :     0.005267  d :     0.046714
      dxz     :     0.007241
      dyz     :     0.008227
      dx2y2   :     0.012289
      dxy     :     0.013690

 11 C s       :     3.181361  s :     3.181361
      pz      :     0.913462  p :     2.896313
      px      :     1.032187
      py      :     0.950664
      dz2     :     0.011119  d :     0.052189
      dxz     :     0.008072
      dyz     :     0.009349
      dx2y2   :     0.011015
      dxy     :     0.012634

 12 C s       :     3.369561  s :     3.369561
      pz      :     1.057181  p :     3.246188
      px      :     1.192616
      py      :     0.996392
      dz2     :     0.011149  d :     0.037990
      dxz     :     0.002468
      dyz     :     0.008445
      dx2y2   :     0.007425
      dxy     :     0.008504

 13 C s       :     3.289802  s :     3.289802
      pz      :     1.030897  p :     2.865595
      px      :     0.759471
      py      :     1.075227
      dz2     :     0.016863  d :     0.064286
      dxz     :     0.015374
      dyz     :     0.003841
      dx2y2   :     0.018422
      dxy     :     0.009785

 14 C s       :     3.051124  s :     3.051124
      pz      :     0.910061  p :     2.753541
      px      :     0.912925
      py      :     0.930555
      dz2     :     0.011480  d :     0.079102
      dxz     :     0.010955
      dyz     :     0.015047
      dx2y2   :     0.017773
      dxy     :     0.023847

 15 C s       :     3.237806  s :     3.237806
      pz      :     0.902836  p :     2.862886
      px      :     0.990104
      py      :     0.969946
      dz2     :     0.010068  d :     0.057936
      dxz     :     0.008859
      dyz     :     0.007519
      dx2y2   :     0.011598
      dxy     :     0.019891

 16 C s       :     3.165923  s :     3.165923
      pz      :     0.858622  p :     2.661147
      px      :     0.922065
      py      :     0.880461
      dz2     :     0.009108  d :     0.079467
      dxz     :     0.010156
      dyz     :     0.015339
      dx2y2   :     0.024121
      dxy     :     0.020743

 17 C s       :     3.304181  s :     3.304181
      pz      :     1.080549  p :     3.205610
      px      :     0.988372
      py      :     1.136689
      dz2     :     0.004150  d :     0.035739
      dxz     :     0.009869
      dyz     :     0.008317
      dx2y2   :     0.009510
      dxy     :     0.003893

 18 H s       :     0.736999  s :     0.736999

 19 H s       :     0.728224  s :     0.728224

 20 H s       :     0.784029  s :     0.784029

 21 H s       :     0.774763  s :     0.774763

 22 H s       :     0.693043  s :     0.693043

 23 H s       :     0.762532  s :     0.762532

 24 H s       :     0.770626  s :     0.770626

 25 H s       :     0.780727  s :     0.780727

 26 H s       :     0.820396  s :     0.820396

 27 H s       :     0.802829  s :     0.802829

 28 H s       :     0.827221  s :     0.827221

 29 H s       :     0.651365  s :     0.651365

 30 H s       :     0.626860  s :     0.626860

 31 H s       :     0.573844  s :     0.573844

 32 H s       :     0.805546  s :     0.805546

 33 H s       :     0.801353  s :     0.801353

 34 H s       :     0.794751  s :     0.794751



                     *******************************
                     * LOEWDIN POPULATION ANALYSIS *
                     *******************************

----------------------
LOEWDIN ATOMIC CHARGES
----------------------
   0 S :    0.734669
   1 O :   -0.709354
   2 N :   -0.036922
   3 N :   -0.182963
   4 N :   -0.182097
   5 N :   -0.458450
   6 C :   -0.023112
   7 C :   -0.160835
   8 C :   -0.244796
   9 C :   -0.277136
  10 C :   -0.168151
  11 C :   -0.240957
  12 C :   -0.401046
  13 C :    0.023627
  14 C :    0.095853
  15 C :   -0.016988
  16 C :    0.090495
  17 C :   -0.410802
  18 H :    0.182801
  19 H :    0.200238
  20 H :    0.191943
  21 H :    0.182012
  22 H :    0.222827
  23 H :    0.188533
  24 H :    0.188153
  25 H :    0.188945
  26 H :    0.170049
  27 H :    0.187447
  28 H :    0.167560
  29 H :    0.286630
  30 H :    0.300042
  31 H :    0.364792
  32 H :    0.176237
  33 H :    0.180361
  34 H :    0.190396

-------------------------------
LOEWDIN REDUCED ORBITAL CHARGES
-------------------------------
  0 S s       :     5.358350  s :     5.358350
      pz      :     3.406518  p :     9.774491
      px      :     3.049392
      py      :     3.318580
      dz2     :     0.013458  d :     0.132490
      dxz     :     0.038300
      dyz     :     0.020031
      dx2y2   :     0.035234
      dxy     :     0.025468

  1 O s       :     3.573141  s :     3.573141
      pz      :     1.867993  p :     4.831466
      px      :     1.530481
      py      :     1.432992
      dz2     :     0.051080  d :     0.304747
      dxz     :     0.074090
      dyz     :     0.012774
      dx2y2   :     0.097938
      dxy     :     0.068865

  2 N s       :     3.062886  s :     3.062886
      pz      :     1.308901  p :     3.851068
      px      :     1.253729
      py      :     1.288437
      dz2     :     0.018874  d :     0.122968
      dxz     :     0.024417
      dyz     :     0.021810
      dx2y2   :     0.031805
      dxy     :     0.026062

  3 N s       :     3.243969  s :     3.243969
      pz      :     1.185704  p :     3.858040
      px      :     1.261856
      py      :     1.410479
      dz2     :     0.009144  d :     0.080954
      dxz     :     0.016729
      dyz     :     0.015218
      dx2y2   :     0.027119
      dxy     :     0.012743

  4 N s       :     3.253188  s :     3.253188
      pz      :     1.246166  p :     3.846400
      px      :     1.192058
      py      :     1.408176
      dz2     :     0.011282  d :     0.082509
      dxz     :     0.017456
      dyz     :     0.008857
      dx2y2   :     0.023436
      dxy     :     0.021478

  5 N s       :     3.213244  s :     3.213244
      pz      :     1.397958  p :     4.195305
      px      :     1.522675
      py      :     1.274672
      dz2     :     0.012275  d :     0.049901
      dxz     :     0.006992
      dyz     :     0.008354
      dx2y2   :     0.007439
      dxy     :     0.014842

  6 C s       :     2.836658  s :     2.836658
      pz      :     1.055778  p :     3.056078
      px      :     0.954730
      py      :     1.045570
      dz2     :     0.022825  d :     0.130376
      dxz     :     0.021830
      dyz     :     0.019335
      dx2y2   :     0.028777
      dxy     :     0.037610

  7 C s       :     2.900524  s :     2.900524
      pz      :     1.039580  p :     3.158320
      px      :     0.971582
      py      :     1.147159
      dz2     :     0.015208  d :     0.101991
      dxz     :     0.031679
      dyz     :     0.018617
      dx2y2   :     0.023770
      dxy     :     0.012718

  8 C s       :     2.926298  s :     2.926298
      pz      :     1.070440  p :     3.220192
      px      :     1.089346
      py      :     1.060407
      dz2     :     0.015349  d :     0.098306
      dxz     :     0.023197
      dyz     :     0.013676
      dx2y2   :     0.021664
      dxy     :     0.024419

  9 C s       :     2.927709  s :     2.927709
      pz      :     1.128081  p :     3.269321
      px      :     1.015607
      py      :     1.125632
      dz2     :     0.021863  d :     0.080107
      dxz     :     0.015082
      dyz     :     0.005344
      dx2y2   :     0.025550
      dxy     :     0.012267

 10 C s       :     2.847441  s :     2.847441
      pz      :     1.075655  p :     3.220523
      px      :     1.036536
      py      :     1.108332
      dz2     :     0.010167  d :     0.100187
      dxz     :     0.015751
      dyz     :     0.017281
      dx2y2   :     0.026989
      dxy     :     0.029999

 11 C s       :     2.960505  s :     2.960505
      pz      :     1.022439  p :     3.171980
      px      :     1.117234
      py      :     1.032308
      dz2     :     0.020277  d :     0.108472
      dxz     :     0.019121
      dyz     :     0.022410
      dx2y2   :     0.023803
      dxy     :     0.022860

 12 C s       :     2.964838  s :     2.964838
      pz      :     1.117753  p :     3.373561
      px      :     1.174035
      py      :     1.081773
      dz2     :     0.018075  d :     0.062647
      dxz     :     0.003514
      dyz     :     0.014977
      dx2y2   :     0.012478
      dxy     :     0.013603

 13 C s       :     2.876018  s :     2.876018
      pz      :     1.042017  p :     2.974100
      px      :     0.867714
      py      :     1.064369
      dz2     :     0.029467  d :     0.126256
      dxz     :     0.032982
      dyz     :     0.006352
      dx2y2   :     0.036838
      dxy     :     0.020617

 14 C s       :     2.820126  s :     2.820126
      pz      :     0.922019  p :     2.917404
      px      :     1.008537
      py      :     0.986849
      dz2     :     0.021220  d :     0.166617
      dxz     :     0.023404
      dyz     :     0.031704
      dx2y2   :     0.039013
      dxy     :     0.051276

 15 C s       :     2.891848  s :     2.891848
      pz      :     0.937575  p :     3.007811
      px      :     1.007145
      py      :     1.063092
      dz2     :     0.017591  d :     0.117328
      dxz     :     0.020503
      dyz     :     0.016263
      dx2y2   :     0.024124
      dxy     :     0.038847

 16 C s       :     2.840288  s :     2.840288
      pz      :     0.894494  p :     2.900177
      px      :     1.007281
      py      :     0.998402
      dz2     :     0.018216  d :     0.169040
      dxz     :     0.019797
      dyz     :     0.032248
      dx2y2   :     0.055819
      dxy     :     0.042960

 17 C s       :     2.985338  s :     2.985338
      pz      :     1.128935  p :     3.367579
      px      :     1.075800
      py      :     1.162844
      dz2     :     0.006595  d :     0.057886
      dxz     :     0.016960
      dyz     :     0.012331
      dx2y2   :     0.015817
      dxy     :     0.006183

 18 H s       :     0.817199  s :     0.817199

 19 H s       :     0.799762  s :     0.799762

 20 H s       :     0.808057  s :     0.808057

 21 H s       :     0.817988  s :     0.817988

 22 H s       :     0.777173  s :     0.777173

 23 H s       :     0.811467  s :     0.811467

 24 H s       :     0.811847  s :     0.811847

 25 H s       :     0.811055  s :     0.811055

 26 H s       :     0.829951  s :     0.829951

 27 H s       :     0.812553  s :     0.812553

 28 H s       :     0.832440  s :     0.832440

 29 H s       :     0.713370  s :     0.713370

 30 H s       :     0.699958  s :     0.699958

 31 H s       :     0.635208  s :     0.635208

 32 H s       :     0.823763  s :     0.823763

 33 H s       :     0.819639  s :     0.819639

 34 H s       :     0.809604  s :     0.809604



                      *****************************
                      * MAYER POPULATION ANALYSIS *
                      *****************************

  NA   - Mulliken gross atomic population
  ZA   - Total nuclear charge
  QA   - Mulliken gross atomic charge
  VA   - Mayer's total valence
  BVA  - Mayer's bonded valence
  FA   - Mayer's free valence

  ATOM       NA         ZA         QA         VA         BVA        FA
  0 S     15.7108    16.0000     0.2892     2.6743     2.6743    -0.0000
  1 O      8.5190     8.0000    -0.5190     1.7572     1.7572    -0.0000
  2 N      6.8691     7.0000     0.1309     3.3215     3.3215     0.0000
  3 N      7.1082     7.0000    -0.1082     3.1275     3.1275    -0.0000
  4 N      7.0792     7.0000    -0.0792     3.0979     3.0979    -0.0000
  5 N      7.6475     7.0000    -0.6475     2.9401     2.9401    -0.0000
  6 C      6.0246     6.0000    -0.0246     4.1013     4.1013     0.0000
  7 C      6.6978     6.0000    -0.6978     3.6847     3.6847     0.0000
  8 C      5.8560     6.0000     0.1440     3.3304     3.3304    -0.0000
  9 C      6.4183     6.0000    -0.4183     3.5471     3.5471    -0.0000
 10 C      5.8366     6.0000     0.1634     3.1334     3.1334     0.0000
 11 C      6.1299     6.0000    -0.1299     3.8194     3.8194     0.0000
 12 C      6.6537     6.0000    -0.6537     3.8086     3.8086    -0.0000
 13 C      6.2197     6.0000    -0.2197     3.7500     3.7500     0.0000
 14 C      5.8838     6.0000     0.1162     4.1094     4.1094    -0.0000
 15 C      6.1586     6.0000    -0.1586     4.0615     4.0615    -0.0000
 16 C      5.9065     6.0000     0.0935     3.9366     3.9366     0.0000
 17 C      6.5455     6.0000    -0.5455     3.7114     3.7114     0.0000
 18 H      0.7370     1.0000     0.2630     0.8990     0.8990     0.0000
 19 H      0.7282     1.0000     0.2718     0.9245     0.9245     0.0000
 20 H      0.7840     1.0000     0.2160     0.9609     0.9609    -0.0000
 21 H      0.7748     1.0000     0.2252     0.9231     0.9231    -0.0000
 22 H      0.6930     1.0000     0.3070     0.8899     0.8899     0.0000
 23 H      0.7625     1.0000     0.2375     0.9204     0.9204    -0.0000
 24 H      0.7706     1.0000     0.2294     0.9211     0.9211    -0.0000
 25 H      0.7807     1.0000     0.2193     0.9420     0.9420    -0.0000
 26 H      0.8204     1.0000     0.1796     0.9394     0.9394     0.0000
 27 H      0.8028     1.0000     0.1972     0.9410     0.9410     0.0000
 28 H      0.8272     1.0000     0.1728     0.9432     0.9432    -0.0000
 29 H      0.6514     1.0000     0.3486     0.8554     0.8554     0.0000
 30 H      0.6269     1.0000     0.3731     0.8528     0.8528    -0.0000
 31 H      0.5738     1.0000     0.4262     0.7870     0.7870    -0.0000
 32 H      0.8055     1.0000     0.1945     0.9520     0.9520     0.0000
 33 H      0.8014     1.0000     0.1986     0.9506     0.9506     0.0000
 34 H      0.7948     1.0000     0.2052     0.9451     0.9451     0.0000

  Mayer bond orders larger than 0.100000
B(  0-S ,  8-C ) :   1.1467 B(  0-S , 11-C ) :   1.3281 B(  1-O , 13-C ) :   1.0181 
B(  1-O , 31-H ) :   0.7761 B(  2-N ,  6-C ) :   1.2307 B(  2-N ,  7-C ) :   0.7983 
B(  2-N , 11-C ) :   1.4293 B(  3-N , 14-C ) :   1.5678 B(  3-N , 16-C ) :   1.4652 
[...]
 39:    758.39   0.002277   11.51  0.000937  (-0.023597  0.019305 -0.002706)
 40:    762.71   0.000472    2.38  0.000193  (-0.003386 -0.009866 -0.009180)
 41:    765.77   0.002609   13.19  0.001063  (-0.006092 -0.025304 -0.019645)
 42:    777.50   0.004143   20.94  0.001663  (-0.036061  0.012998 -0.013914)
 43:    817.00   0.003099   15.66  0.001184  ( 0.021222  0.012290 -0.024132)
 44:    844.78   0.000494    2.50  0.000183  ( 0.004038 -0.003898  0.012289)
 45:    924.11   0.000508    2.57  0.000172  ( 0.001148 -0.001284  0.012984)
 46:    935.32   0.000698    3.53  0.000233  (-0.011307 -0.002714 -0.009886)
 47:    949.56   0.001083    5.47  0.000356  ( 0.013882 -0.008538  0.009503)
 48:    971.82   0.005501   27.80  0.001766  (-0.034850  0.009629 -0.021426)
 49:    980.67   0.010837   54.76  0.003448  (-0.052463  0.023346  0.012289)
 50:    984.21   0.000453    2.29  0.000144  (-0.001168  0.007343  0.009405)
 51:   1016.76   0.001574    7.95  0.000483  (-0.014065 -0.016889 -0.000250)
 52:   1042.49   0.001541    7.79  0.000461  ( 0.008361  0.003086  0.019542)
 53:   1050.59   0.000624    3.15  0.000185  ( 0.013289  0.000655  0.002879)
 54:   1054.27   0.042716  215.87  0.012644  ( 0.111033 -0.017629 -0.002175)
 55:   1056.19   0.001154    5.83  0.000341  (-0.014712 -0.001332 -0.011085)
 56:   1091.34   0.007882   39.83  0.002254  (-0.045836  0.011029 -0.005602)
 57:   1117.41   0.001780    8.99  0.000497  (-0.019538  0.007942  0.007223)
 58:   1168.91   0.007273   36.76  0.001942  ( 0.041615 -0.003378  0.014088)
 59:   1193.20   0.000826    4.17  0.000216  (-0.007802  0.009418 -0.008153)
 60:   1223.60   0.000735    3.71  0.000187  ( 0.006189  0.009600 -0.007544)
 61:   1236.62   0.008011   40.48  0.002022  (-0.043423 -0.002187 -0.011457)
 62:   1245.86   0.002386   12.06  0.000598  ( 0.013377  0.009891 -0.017912)
 63:   1290.80   0.000363    1.83  0.000088  (-0.001641  0.005667  0.007270)
 64:   1297.32   0.006070   30.67  0.001460  (-0.017436 -0.033564 -0.005429)
 65:   1307.53   0.000385    1.95  0.000092  ( 0.006668 -0.004730 -0.005010)
 66:   1311.33   0.005600   28.30  0.001333  ( 0.035428 -0.007499  0.004611)
 67:   1321.82   0.010533   53.23  0.002487  (-0.049413  0.004515 -0.004968)
 68:   1357.28   0.002079   10.51  0.000478  (-0.015085 -0.010153 -0.012142)
 69:   1365.42   0.006193   31.30  0.001415  ( 0.036680  0.008358  0.000381)
 70:   1391.96   0.000495    2.50  0.000111  (-0.007711  0.002623  0.006685)
 71:   1404.42   0.001699    8.59  0.000378  (-0.018451 -0.005413 -0.002796)
 72:   1405.48   0.010758   54.37  0.002389  ( 0.048483 -0.005917 -0.001758)
 73:   1427.56   0.004405   22.26  0.000963  (-0.022226 -0.009801  0.019312)
 74:   1429.65   0.004854   24.53  0.001060  ( 0.031234 -0.001457 -0.009047)
 75:   1456.43   0.036894  186.45  0.007905  ( 0.083955 -0.009523 -0.027677)
 76:   1475.32   0.002199   11.11  0.000465  (-0.016174  0.010278  0.009892)
 77:   1476.47   0.002586   13.07  0.000547  (-0.017893  0.006501  0.013572)
 78:   1480.94   0.006893   34.84  0.001453  (-0.018801  0.011459  0.031108)
 79:   1487.82   0.007439   37.60  0.001560  (-0.002004 -0.038334 -0.009318)
 80:   1491.29   0.001183    5.98  0.000248  ( 0.003291  0.014102 -0.006150)
 81:   1495.02   0.001016    5.13  0.000212  ( 0.010317  0.010255  0.000671)
 82:   1509.69   0.000501    2.53  0.000104  (-0.001327  0.010016 -0.001239)
 83:   1510.56   0.003889   19.65  0.000803  ( 0.024655 -0.004101  0.013371)
 84:   1569.28   0.031699  160.20  0.006304  ( 0.003209 -0.076528 -0.020901)
 85:   1606.75   0.003563   18.00  0.000692  ( 0.012764  0.013710 -0.018468)
 86:   1612.18   0.061472  310.66  0.011899  ( 0.104377  0.010742 -0.029817)
 87:   1665.40   0.039963  201.96  0.007488  (-0.037097  0.053113  0.057368)
 88:   2961.67   0.007447   37.63  0.000785  ( 0.015081  0.006230  0.022769)
 89:   3015.15   0.000067    0.34  0.000007  ( 0.001731 -0.000344  0.001957)
 90:   3016.41   0.000684    3.46  0.000071  (-0.005361  0.002116 -0.006128)
 91:   3024.84   0.001586    8.02  0.000164  ( 0.002039 -0.000005 -0.012628)
 92:   3025.21   0.002054   10.38  0.000212  (-0.011761 -0.006621  0.005446)
 93:   3040.65   0.003846   19.44  0.000395  (-0.011146 -0.014667  0.007443)
 94:   3071.51   0.000198    1.00  0.000020  (-0.001769  0.003984  0.001073)
 95:   3072.49   0.000844    4.27  0.000086  ( 0.001911  0.008083  0.004092)
 96:   3078.12   0.001751    8.85  0.000178  (-0.002026 -0.007777  0.010629)
 97:   3081.09   0.004729   23.90  0.000479  (-0.010973 -0.018931  0.000383)
 98:   3084.18   0.001137    5.74  0.000115  ( 0.003313  0.003351 -0.009633)
 99:   3129.10   0.001148    5.80  0.000115  (-0.010593 -0.001288  0.000794)
100:   3135.50   0.001147    5.80  0.000114  ( 0.003346  0.010103  0.000940)
101:   3239.89   0.007944   40.15  0.000765  (-0.026762 -0.004201  0.005593)
102:   3516.46   0.009459   47.80  0.000839  ( 0.003788  0.025245  0.013704)
103:   3631.96   0.004581   23.15  0.000394  ( 0.014105  0.013425 -0.003794)
104:   3752.23   0.010848   54.82  0.000902  ( 0.027516  0.005241 -0.010844)

* The epsilon (eps) is given for a Dirac delta lineshape.
** The dipole moment derivative (T) already includes vibrational overlap.

The first frequency considered to be a vibration is 6
The total number of vibrations considered is 99


--------------------------
THERMOCHEMISTRY AT 298.15K
--------------------------

Temperature         ...   298.15 K
Pressure            ...     1.00 atm
Total Mass          ...   265.35 AMU
Quasi RRHO          ...     True
Cut-Off Frequency   ...     1.00 cm^-1

Throughout the following assumptions are being made:
  (1) The electronic state is orbitally nondegenerate
  (2) There are no thermally accessible electronically excited states
  (3) Hindered rotations indicated by low frequency modes are not
      treated as such but are treated as vibrations and this may
      cause some error
  (4) All equations used are the standard statistical mechanics
      equations for an ideal gas
  (5) All vibrations are strictly harmonic

freq.      18.02  E(vib)   ...       0.57 
freq.      29.61  E(vib)   ...       0.55 
freq.      44.56  E(vib)   ...       0.53 
freq.      46.71  E(vib)   ...       0.53 
freq.      49.70  E(vib)   ...       0.52 
freq.      75.41  E(vib)   ...       0.49 
freq.      89.03  E(vib)   ...       0.47 
freq.     116.81  E(vib)   ...       0.44 
freq.     143.64  E(vib)   ...       0.41 
freq.     166.89  E(vib)   ...       0.39 
freq.     198.43  E(vib)   ...       0.35 
freq.     205.40  E(vib)   ...       0.35 
freq.     227.59  E(vib)   ...       0.33 
freq.     271.61  E(vib)   ...       0.29 
freq.     296.56  E(vib)   ...       0.27 
freq.     298.95  E(vib)   ...       0.26 
freq.     316.63  E(vib)   ...       0.25 
freq.     318.66  E(vib)   ...       0.25 
freq.     336.69  E(vib)   ...       0.24 
freq.     341.45  E(vib)   ...       0.23 
freq.     406.84  E(vib)   ...       0.19 
freq.     435.10  E(vib)   ...       0.17 
freq.     443.73  E(vib)   ...       0.17 
freq.     490.55  E(vib)   ...       0.15 
freq.     521.85  E(vib)   ...       0.13 
freq.     540.67  E(vib)   ...       0.12 
freq.     562.63  E(vib)   ...       0.11 
freq.     579.52  E(vib)   ...       0.11 
freq.     596.73  E(vib)   ...       0.10 
freq.     622.17  E(vib)   ...       0.09 
freq.     635.17  E(vib)   ...       0.09 
freq.     660.81  E(vib)   ...       0.08 
freq.     710.72  E(vib)   ...       0.07 
freq.     758.39  E(vib)   ...       0.06 
freq.     762.71  E(vib)   ...       0.06 
freq.     765.77  E(vib)   ...       0.06 
freq.     777.50  E(vib)   ...       0.05 
freq.     817.00  E(vib)   ...       0.05 
freq.     844.78  E(vib)   ...       0.04 
freq.     924.11  E(vib)   ...       0.03 
freq.     935.32  E(vib)   ...       0.03 
freq.     949.56  E(vib)   ...       0.03 
freq.     971.82  E(vib)   ...       0.03 
freq.     980.67  E(vib)   ...       0.02 
freq.     984.21  E(vib)   ...       0.02 
freq.    1016.76  E(vib)   ...       0.02 
freq.    1042.49  E(vib)   ...       0.02 
freq.    1050.59  E(vib)   ...       0.02 
freq.    1054.27  E(vib)   ...       0.02 
freq.    1056.19  E(vib)   ...       0.02 
freq.    1091.34  E(vib)   ...       0.02 
freq.    1117.41  E(vib)   ...       0.01 
freq.    1168.91  E(vib)   ...       0.01 
freq.    1193.20  E(vib)   ...       0.01 
freq.    1223.60  E(vib)   ...       0.01 
freq.    1236.62  E(vib)   ...       0.01 
freq.    1245.86  E(vib)   ...       0.01 
freq.    1290.80  E(vib)   ...       0.01 
freq.    1297.32  E(vib)   ...       0.01 
freq.    1307.53  E(vib)   ...       0.01 
freq.    1311.33  E(vib)   ...       0.01 
freq.    1321.82  E(vib)   ...       0.01 
freq.    1357.28  E(vib)   ...       0.01 
freq.    1365.42  E(vib)   ...       0.01 
freq.    1391.96  E(vib)   ...       0.00 
freq.    1404.42  E(vib)   ...       0.00 
freq.    1405.48  E(vib)   ...       0.00 
freq.    1427.56  E(vib)   ...       0.00 
freq.    1429.65  E(vib)   ...       0.00 
freq.    1456.43  E(vib)   ...       0.00 
freq.    1475.32  E(vib)   ...       0.00 
freq.    1476.47  E(vib)   ...       0.00 
freq.    1480.94  E(vib)   ...       0.00 
freq.    1487.82  E(vib)   ...       0.00 
freq.    1491.29  E(vib)   ...       0.00 
freq.    1495.02  E(vib)   ...       0.00 
freq.    1509.69  E(vib)   ...       0.00 
freq.    1510.56  E(vib)   ...       0.00 
freq.    1569.28  E(vib)   ...       0.00 
freq.    1606.75  E(vib)   ...       0.00 
freq.    1612.18  E(vib)   ...       0.00 
freq.    1665.40  E(vib)   ...       0.00 
freq.    2961.67  E(vib)   ...       0.00 
freq.    3015.15  E(vib)   ...       0.00 
freq.    3016.41  E(vib)   ...       0.00 
freq.    3024.84  E(vib)   ...       0.00 
freq.    3025.21  E(vib)   ...       0.00 
freq.    3040.65  E(vib)   ...       0.00 
freq.    3071.51  E(vib)   ...       0.00 
freq.    3072.49  E(vib)   ...       0.00 
freq.    3078.12  E(vib)   ...       0.00 
freq.    3081.09  E(vib)   ...       0.00 
freq.    3084.18  E(vib)   ...       0.00 
freq.    3129.10  E(vib)   ...       0.00 
freq.    3135.50  E(vib)   ...       0.00 
freq.    3239.89  E(vib)   ...       0.00 
freq.    3516.46  E(vib)   ...       0.00 
freq.    3631.96  E(vib)   ...       0.00 
freq.    3752.23  E(vib)   ...       0.00 

------------
INNER ENERGY
------------

The inner energy is: U= E(el) + E(ZPE) + E(vib) + E(rot) + E(trans)
    E(el)   - is the total energy from the electronic structure calculation
              = E(kin-el) + E(nuc-el) + E(el-el) + E(nuc-nuc)
    E(ZPE)  - the the zero temperature vibrational energy from the frequency calculation
    E(vib)  - the the finite temperature correction to E(ZPE) due to population
              of excited vibrational states
    E(rot)  - is the rotational thermal energy
    E(trans)- is the translational thermal energy

Summary of contributions to the inner energy U:
Electronic energy                ...  -1159.31094509 Eh
Zero point energy                ...      0.28429719 Eh     178.40 kcal/mol
Thermal vibrational correction   ...      0.01603255 Eh      10.06 kcal/mol
Thermal rotational correction    ...      0.00141627 Eh       0.89 kcal/mol
Thermal translational correction ...      0.00141627 Eh       0.89 kcal/mol
-----------------------------------------------------------------------
Total thermal energy                  -1159.00778282 Eh


Summary of corrections to the electronic energy:
(perhaps to be used in another calculation)
Total thermal correction                  0.01886509 Eh      11.84 kcal/mol
Non-thermal (ZPE) correction              0.28429719 Eh     178.40 kcal/mol
-----------------------------------------------------------------------
Total correction                          0.30316228 Eh     190.24 kcal/mol


--------
ENTHALPY
--------

The enthalpy is H = U + kB*T
                kB is Boltzmann's constant
Total thermal energy              ...  -1159.00778282 Eh 
Thermal Enthalpy correction       ...      0.00094421 Eh       0.59 kcal/mol
-----------------------------------------------------------------------
Total Enthalpy                    ...  -1159.00683861 Eh


Note: Only C1 symmetry has been detected, increase convergence thresholds 
      if your molecule has a higher symmetry. Symmetry factor of 1.0 is   
      used for the rotational entropy correction. 
 

Note: Rotational entropy computed according to Herzberg 
Infrared and Raman Spectra, Chapter V,1, Van Nostrand Reinhold, 1945 
Point Group:  C1, Symmetry Number:   1  
Rotational constants in cm-1:     0.034163     0.005395     0.005264 

Vibrational entropy computed according to the QRRHO of S. Grimme
Chem.Eur.J. 2012 18 9955 using a reference frequency of 100.0 cm-1


-------
ENTROPY
-------

The entropy contributions are T*S = T*(S(el)+S(vib)+S(rot)+S(trans))
     S(el)   - electronic entropy
     S(vib)  - vibrational entropy
     S(rot)  - rotational entropy
     S(trans)- translational entropy
The entropies will be listed as multiplied by the temperature to get
units of energy

Electronic entropy                ...      0.00000000 Eh      0.00 kcal/mol
Vibrational entropy               ...      0.02877237 Eh     18.05 kcal/mol
Rotational entropy                ...      0.01604723 Eh     10.07 kcal/mol
Translational entropy             ...      0.02025338 Eh     12.71 kcal/mol
-----------------------------------------------------------------------
Final entropy term                ...      0.06507298 Eh     40.83 kcal/mol

In case the symmetry of your molecule has not been determined correctly
or in case you have a reason to use a different symmetry number we print 
out the resulting rotational entropy values for sn=1,12:

 non-linear molecules -----------------------------------
|  sn= 1 | S(rot)=       0.01604723 Eh     10.07 kcal/mol|
|  sn= 2 | S(rot)=       0.01539277 Eh      9.66 kcal/mol|
|  sn= 3 | S(rot)=       0.01500994 Eh      9.42 kcal/mol|
|  sn= 4 | S(rot)=       0.01473832 Eh      9.25 kcal/mol|
|  sn= 5 | S(rot)=       0.01452763 Eh      9.12 kcal/mol|
|  sn= 6 | S(rot)=       0.01435548 Eh      9.01 kcal/mol|
|  sn= 7 | S(rot)=       0.01420994 Eh      8.92 kcal/mol|
|  sn= 8 | S(rot)=       0.01408386 Eh      8.84 kcal/mol|
|  sn= 9 | S(rot)=       0.01397265 Eh      8.77 kcal/mol|
|  sn=10 | S(rot)=       0.01387317 Eh      8.71 kcal/mol|
|  sn=11 | S(rot)=       0.01378318 Eh      8.65 kcal/mol|
|  sn=12 | S(rot)=       0.01370103 Eh      8.60 kcal/mol|
 linear molecules ---------------------------------------
|  Dinfh | S(rot)=       0.01027972 Eh      6.45 kcal/mol|
|  Cinfv | S(rot)=       0.01093418 Eh      6.86 kcal/mol|
 --------------------------------------------------------


-------------------
GIBBS FREE ENERGY
-------------------

The Gibbs free energy is G = H - T*S

Total enthalpy                    ...  -1159.00683861 Eh 
Total entropy correction          ...     -0.06507298 Eh    -40.83 kcal/mol
-----------------------------------------------------------------------
Final Gibbs free energy         ...  -1159.07191158 Eh

For completeness - the Gibbs free energy minus the electronic energy
G-E(el)                           ...      0.23903351 Eh    150.00 kcal/mol


Maximum memory used throughout the entire PROP-calculation: 105.2 MB

--------------------------------
SUGGESTED CITATIONS FOR THIS RUN
--------------------------------

Below you find a list of papers that are relevant to this ORCA run
We neither can nor want to force you to cite these papers, but we appreciate if you do
You receive ORCA, which is the product of decades of hard work by many enthusiastic individuals, for free
The only thing we kindly ask in return is that you cite our papers,
We deeply appreciate it, if you show your appreciation for ORCA by not just citing the generic ORCA reference.

Please note that relegating all ORCA citations to the supporting information does *not* help us.
SI sections are not indexed - citations you put there will not count into any citation statistics
But we need these citations in order to attract the funding resources that allow us to do what we are doing

Therefore, if you are a happy ORCA user, please consider citing a few of the papers listed below in the main body of your paper

In addition to the list printed below, the program has created the file m1_01_Vitamin_B1-B97-3C-TZ.bibtex that contains the list in bibtex format
You can import this file easily into all common literature databanks and citation aid programs


List of essential papers. We consider these as the minimum necessary citations

  1. Neese,F.
     Software update: the ORCA program system, version 5.0
     WIRES Comput. Molec. Sci., 2022 12(1)e1606
     doi.org/10.1002/wcms.1606

List of papers to cite with high priority. The work reported in these papers was absolutely
necessary for this run to complete.
Our perspective: the developers of density functionals and basis sets usually get cited in chemistry papers
Good! But without the algorithms to do something with them, the functionals or basis sets would not do anything.
Hence, in our opinion, the algorithm design and method developments papers are equally worthy of getting cited

  1. Neese,F.
     An improvement of the resolution of the identity approximation for the formation of the Coulomb matrix
     J. Comp. Chem., 2003 24(14)1740-1747
     doi.org/10.1002/jcc.10318
  2. Bykov,D.; Petrenko,T.; Izsak,R.; Kossmann,S.; Becker,U.; Valeev,E.; Neese,F.
     Efficient implementation of the analytic second derivatives of Hartree-Fock and hybrid DFT energies: a detailed analysis of different approximations
     Molec. Phys., 2015 113 1961-1977
     doi.org/10.1080/00268976.2015.1025114
  3. Neese,F.
     The SHARK Integral Generation and Digestion System
     J. Comp. Chem., 2022  1-16
     doi.org/10.1002/jcc.26942
  4. Grimme,S.; Antony,J.; Ehrlich,S.; Krieg,H.
     A consistent and accurate ab initio parametrization of density functional dispersion correction (DFT-D) for the 94 elements H-Pu
     J. Chem. Phys., 2010 132 154104
     doi.org/10.1063/1.3382344
  5. Grimme,S.; Ehrlich,S.; Goerigk,L.
     Effect of the damping function in dispersion corrected density functional theory
     J. Comput. Chem., 2011 32(7)1456-1465
     doi.org/10.1002/jcc.21759

List of suggested additional citations. These are papers that are important in the 'surrounding' of 
of this run, or papers that preceded the highly important papers. If you like your results we are grateful for a citation.

  1. Neese,F.
     The ORCA program system
     WIRES Comput. Molec. Sci., 2012 2(1)73-78
     doi.org/10.1002/wcms.81
  2. Neese,F.
     Software update: the ORCA program system, version 4.0
     WIRES Comput. Molec. Sci., 2018 8(1)1-6
     doi.org/10.1002/wcms.1327
  3. Neese,F.; Wennmohs,F.; Becker,U.; Riplinger,C.
     The ORCA quantum chemistry program package
     J. Chem. Phys., 2020 152 Art. No. L224108
     doi.org/10.1063/5.0004608

List of optional additional citations

  1. Neese,F.
     Approximate second-order SCF convergence for spin unrestricted wavefunctions
     Chem. Phys. Lett., 2000 325(1-3)93-98
     doi.org/10.1016/s0009-2614(00)00662-x

Timings for individual modules:

Sum of individual times          ...      503.212 sec (=   8.387 min)
Startup calculation              ...       78.833 sec (=   1.314 min)  15.7 %
SCF iterations                   ...      158.919 sec (=   2.649 min)  31.6 %
Property integrals               ...       75.290 sec (=   1.255 min)  15.0 %
SCF Response                     ...       74.924 sec (=   1.249 min)  14.9 %
Property calculations            ...       31.998 sec (=   0.533 min)   6.4 %
SCF Gradient evaluation          ...       83.092 sec (=   1.385 min)  16.5 %
Geometry relaxation              ...        0.154 sec (=   0.003 min)   0.0 %
                             ****ORCA TERMINATED NORMALLY****
TOTAL RUN TIME: 0 days 0 hours 8 minutes 28 seconds 445 msec
