
                                 *****************
                                 * O   R   C   A *
                                 *****************

                                            #,                                       
                                            ###                                      
                                            ####                                     
                                            #####                                    
                                            ######                                   
                                           ########,                                 
                                     ,,################,,,,,                         
                               ,,#################################,,                 
                          ,,##########################################,,             
                       ,#########################################, ''#####,          
                    ,#############################################,,   '####,        
                  ,##################################################,,,,####,       
                ,###########''''           ''''###############################       
              ,#####''   ,,,,##########,,,,          '''####'''          '####       
            ,##' ,,,,###########################,,,                        '##       
           ' ,,###''''                  '''############,,,                           
         ,,##''                                '''############,,,,        ,,,,,,###''
      ,#''                                            '''#######################'''  
     '                                                          ''''####''''         
             ,#######,   #######,   ,#######,      ##                                
            ,#'     '#,  ##    ##  ,#'     '#,    #''#        ,####,   ,####,        
            ##       ##  ##   ,#'  ##            #'  '#       #'       #'  '#        
            ##       ##  #######   ##           ,######,      #####,   #    #        
            '#,     ,#'  ##    ##  '#,     ,#' ,#      #,     #,   #   #,  ,#        
             '#######'   ##     ##  '#######'  #'      '#     '####' # '####'        



                #########################################################
                #                        -***-                          #
                #          Department of theory and spectroscopy        #
                #                                                       #
                #                      Frank Neese                      #
                #                                                       #
                #     Directorship, Architecture, Infrastructure        #
                #                    SHARK, DRIVERS                     #
                #        Core code/Algorithms in most modules           #
                #                                                       #
                #        Max Planck Institute fuer Kohlenforschung      #
                #                Kaiser Wilhelm Platz 1                 #
                #                 D-45470 Muelheim/Ruhr                 #
                #                      Germany                          #
                #                                                       #
                #                  All rights reserved                  #
                #                        -***-                          #
                #########################################################


                         Program Version 6.0.1  -  RELEASE   -


 With contributions from (in alphabetic order):
[Max-Planck-Institut fuer Kohlenforschung]                               
  Daniel Aravena         : Magnetic Suceptibility                        
  Michael Atanasov       : Ab Initio Ligand Field Theory (pilot matlab implementation)
  Alexander A. Auer      : GIAO ZORA, VPT2 properties, NMR spectrum      
  Ute Becker             : All parallelization in ORCA, NUMFREQ, NUMCALC 
  Giovanni Bistoni       : ED, misc. LED, open-shell LED, HFLD           
  Martin Brehm           : Molecular dynamics                            
  Dmytro Bykov           : pre 5.0 version of the SCF Hessian            
  Marcos Casanova-Páez   : Triplet and SCS-CIS(D). UHF-(DLPNO)-IP/EA/STEOM-CCSD. UHF-CVS-IP/STEOM-CCSD   
  Vijay G. Chilkuri      : MRCI spin determinant printing, contributions to CSF-ICE 
  Pauline Colinet        : FMM embedding                                 
  Dipayan Datta          : RHF DLPNO-CCSD density                        
  Achintya Kumar Dutta   : EOM-CC, STEOM-CC                              
  Nicolas Foglia         : Exact transition moments, OPA infrastructure, MCD improvements    
  Dmitry Ganyushin       : Spin-Orbit,Spin-Spin,Magnetic field MRCI      
  Miquel Garcia-Rates    : C-PCM and meta-GGA Hessian, CCSD/C-PCM, Gaussian charge scheme 
  Tiago L. C. Gouveia    : GS-ROHF, GS-ROCIS                             
  Yang Guo               : DLPNO-NEVPT2, F12-NEVPT2, CIM, IAO-localization        
  Andreas Hansen         : Spin unrestricted coupled pair/coupled cluster methods 
  Ingolf Harden          : AUTO-CI MPn and infrastructure                
  Benjamin Helmich-Paris : MC-RPA, TRAH-(SCF,CASSCF), AVAS, COSX integrals, SCF dyn. polar. 
  Lee Huntington         : MR-EOM, pCC                                   
  Robert Izsak           : Overlap fitted RIJCOSX, COSX-SCS-MP3, EOM     
  Riya Kayal             : Wick's Theorem for AUTO-CI, AUTO-CI UHF-CCSDT 
  Emily Kempfer          : AUTO-CI, RHF CISDT and CCSDT                  
  Christian Kollmar      : KDIIS, OOCD, Brueckner-CCSD(T), CCSD density, CASPT2, CASPT2-K, improved NEVPT2 
  Axel Koslowski         : Symmetry handling                             
  Simone Kossmann        : meta-GGA functionals, TD-DFT gradient, OOMP2, (MP2 Hessian; deprecated post 5.0) 
  Lucas Lang             : DCDCAS                                        
  Marvin Lechner         : AUTO-CI (C++ implementation), FIC-MRCC        
  Spencer Leger          : CASSCF response                               
  Dagmar Lenk            : GEPOL surface, SMD, ORCA-2-JSON               
  Dimitrios Liakos       : Extrapolation schemes; Compound Job, initial MDCI parallelization 
  Dimitrios Manganas     : Further ROCIS development; embedding schemes. LFT, Crystal Embedding 
  Dimitrios Pantazis     : SARC Basis sets                               
  Anastasios Papadopoulos: AUTO-CI, single reference methods and gradients 
  Taras Petrenko         : pre 6.0 DFT Hessian and TD-DFT gradient, (ASA, deprecated), ECA, 1-Electron XAS/XES, NRVS 
  Peter Pinski           : DLPNO-MP2, DLPNO-MP2 Gradient                 
  Christoph Reimann      : Effective Core Potentials                     
  Marius Retegan         : Local ZFS, SOC                                
  Christoph Riplinger    : Optimizer, TS searches, QM/MM, DLPNO-CCSD(T), (RO)-DLPNO pert. Triples 
  Michael Roemelt        : Original ROCIS implementation                 
  Masaaki Saitow         : Open-shell DLPNO-CCSD energy and density      
  Barbara Sandhoefer     : DKH picture change effects                    
  Kantharuban Sivalingam : CASSCF convergence/infrastructure, NEVPT2 and variants, FIC-MRCI 
  Bernardo de Souza      : ESD, SOC TD-DFT                               
  Georgi L. Stoychev     : AutoAux, RI-MP2 NMR, DLPNO-MP2 response, X2C  
  Van Anh Tran           : RI-MP2 g-tensors                              
  Willem Van den Heuvel  : Paramagnetic NMR                              
  Zikuan Wang            : NOTCH, Electric field optimization            
  Frank Wennmohs         : Technical directorship and infrastructure     
  Hang Xu                : AUTO-CI-Response properties                   
                                                                         
[FACCTs GmbH]                                                            
  Markus Bursch, Miquel Garcia-Rates, Christoph Riplinger, Bernardo de Souza, Georgi L. Stoychev 
                                                                 
  APM, Basis sets (HGBS, AHGBS, def-TZVP (Ac-Lr), def2-XVPD (La-Lu)), CI-OPT, improved COSX, DLPNO-Multilevel,           
  DOCKER, DRACO, updates on ESD, GOAT, IRC, LR-CPCM, MBIS, meta-GGA TD-DFT gradient, ML-optimized integration grids, 
  MM, NACMEs, nearIR, NEB, NEB-TS, NL-DFT gradient (VV10), 2- and 3-layer-ONIOM, interface openCOSMO-RS, QMMM,   
  Crystal-QMMM, SF, symmetry and pop. for TD-DFT, r2SCAN hybrids, SOLVATOR                                   
                                                                         
[Other institutions]                                                     
  V. Asgeirsson          : NEB                                           
  Christoph Bannwarth    : sTDA-DFT, sTD-DFT, PBEh-3c, B97-3c, D3        
  Sebastian Ehlert       : rSCAN, r2SCAN, r2SCAN-3c, D4, dhf basis sets  
  Marvin Friede          : D4 for Fr, Ra, Ac-Lr                          
  Lars Goerigk           : TD-DFT with DH, B97 family of functionals     
  Stefan Grimme          : VdW corrections, initial TS optimization, DFT functionals, gCP, sTDA/sTD-DF 
  Waldemar Hujo          : DFT-NL                                        
  H. Jonsson             : NEB                                           
  Holger Kruse           : gCP                                           
  Marcel Mueller         : wB97X-3c, vDZP basis set                      
  Hagen Neugebauer       : wr2SCAN                                       
  Tobias Risthaus        : range-separated hybrid DFT                    
  Lukas Wittmann         : regularized MP2, r2SCAN double-hybrids, wr2SCAN        
                                                                         
We gratefully acknowledge several colleagues who have allowed us to      
interface, adapt or use parts of their codes:                            
  Ed Valeev, F. Pavosevic, A. Kumar             : LibInt (2-el integral package), F12 methods 
  Garnet Chan, S. Sharma, J. Yang, R. Olivares  : DMRG                   
  Ulf Ekstrom                                   : XCFun DFT Library      
  Mihaly Kallay                                 : mrcc  (arbitrary order and MRCC methods)
  Frank Weinhold                                : gennbo (NPA and NBO analysis)           
  Simon Mueller                                 : openCOSMO-RS                            
  Christopher J. Cramer and Donald G. Truhlar   : smd solvation model                     
  S Lehtola, MJT Oliveira, MAL Marques          : LibXC Library                           
  Liviu Ungur et al                             : ANISO software                          


 Your calculation uses the libint2 library for the computation of 2-el integrals
 For citations please refer to: http://libint.valeyev.net

 Your ORCA version has been built with support for libXC version: 6.2.2
 For citations please refer to: https://libxc.gitlab.io

 This ORCA versions uses:
   CBLAS   interface :  Fast vector & matrix operations
   LAPACKE interface :  Fast linear algebra routines
   SCALAPACK package :  Parallel linear algebra routines
   Shared memory     :  Shared parallel matrices
   BLAS/LAPACK       :  OpenBLAS 0.3.27  USE64BITINT DYNAMIC_ARCH NO_AFFINITY Zen SINGLE_THREADED
        Core in use  :  Zen
   Copyright (c) 2011-2014, The OpenBLAS Project


NOTE: MaxCore=6000 MB was set to SCF,MP2,MDCI,CIPSI,MRCI and CIS
      => If you want to overwrite this, your respective input block should be placed after the MaxCore statement
Your calculation utilizes the atom-pairwise dispersion correction
with the Becke-Johnson damping scheme (D3BJ)


Your calculation employs the composite approach B97-3c by Grimme and coworkers.
For the correct reference, please check the publication list of the Grimme group:
http://www.thch.uni-bonn.de/tc/index.php?section=publikationen&subsection=grimme#2017
   

XCFun DFT library Copyright 2009-2010 Ulf Ekstrom and contributors.
See http://admol.org/xcfun for more information.
This is free software; see the source code for copying conditions.
There is ABSOLUTELY NO WARRANTY; not even for MERCHANTABILITY or FITNESS FOR A PARTICULAR PURPOSE.
For details see the documentation.
Scientific users of this library should cite U. Ekstrom, L. Visscher, R. Bast, A. J. Thorvaldsen and K. Ruud;
J.Chem.Theor.Comp. 2010, DOI: 10.1021/ct100117s
XCFun Version 0.99 

================================================================================

----- Orbital basis set information -----
Your calculation utilizes the basis: def2-mTZVP
----- AuxJ basis set information -----
Your calculation utilizes the basis: def2-mTZVP/J
================================================================================
                                        WARNINGS
                       Please study these warnings very carefully!
================================================================================


WARNING: Geometry Optimization
  ===> : Switching off AutoStart
         For restart on a previous wavefunction, please use MOREAD

================================================================================
                                       INPUT FILE
================================================================================
NAME = m1_00_Vitamin_A-B97-3C-TZ.inp
|  1> %pal nprocs 16 end
|  2> %MaxCore 6000
|  3> # put your comments here
|  4> ! B97-3C  OPT  FREQ DEFGRID3 NOTRAH CHELPG
|  5> %scf MaxIter 800 end
|  6> %output
|  7> Print [P_Hirshfeld] 1
|  8> end
|  9> %geom
| 10> MaxIter 3000
| 11>  TolE 1e-6 #TolE 5e-6 Energy change (a.u.)
| 12>  TolRMSG 3e-5 #TolRMSG 1e-4 RMS gradient (a.u.)
| 13>  TolMaxG 1e-4 #TolMaxG 3e-3 Max. element of gradient (a.u.)
| 14>  TolRMSD 2e-3 #TolRMSD 2e-3 RMS displacement (a.u.)
| 15>  TolMaxD 4e-3 #TolMaxD 4e-3 Max. displacement (a.u.)
| 16> end
| 17> * xyz 0 1
| 18>  O      8.230900000      1.089600000      1.438500000
| 19>  C     -4.506500000     -0.752900000      0.532700000
| 20>  C     -5.865200000     -0.005800000      0.438600000
| 21>  C     -5.724200000      1.480000000      0.716300000
| 22>  C     -3.378200000      0.025800000     -0.183600000
| 23>  C     -4.784400000      2.113100000     -0.298600000
| 24>  C     -3.526500000      1.315500000     -0.578300000
| 25>  C     -4.742400000     -2.147500000     -0.097400000
| 26>  C     -4.139200000     -0.942600000      2.022300000
| 27>  C     -2.138900000     -0.706800000     -0.384400000
| 28>  C     -2.500800000      2.133100000     -1.329100000
| 29>  C     -0.925800000     -0.158500000     -0.211700000
| 30>  C      0.370100000     -0.822400000     -0.391800000
| 31>  C      0.348900000     -2.270200000     -0.814700000
| 32>  C      1.492200000     -0.103800000     -0.170500000
| 33>  C      2.868900000     -0.547700000     -0.286600000
| 34>  C      3.913100000      0.262400000     -0.039200000
| 35>  C      5.334500000     -0.087000000     -0.127400000
| 36>  C      5.681500000     -1.493900000     -0.539100000
| 37>  C      6.249500000      0.862900000      0.159500000
| 38>  C      7.742500000      0.756600000      0.144400000
| 39>  H     -6.590800000     -0.439400000      1.138500000
| 40>  H     -6.294400000     -0.133100000     -0.565200000
| 41>  H     -5.349600000      1.647900000      1.732500000
| 42>  H     -6.704800000      1.966700000      0.661300000
| 43>  H     -4.515200000      3.112800000      0.064600000
| 44>  H     -5.319700000      2.252100000     -1.246900000
| 45>  H     -4.869500000     -2.078000000     -1.184000000
| 46>  H     -3.919500000     -2.841100000      0.106500000
| 47>  H     -5.647000000     -2.613000000      0.312600000
| 48>  H     -4.953500000     -1.428800000      2.571700000
| 49>  H     -3.249700000     -1.572800000      2.138800000
| 50>  H     -3.926900000      0.012300000      2.515200000
| 51>  H     -2.228300000     -1.730500000     -0.728700000
| 52>  H     -3.004000000      2.796800000     -2.042900000
| 53>  H     -1.820500000      1.531500000     -1.937000000
| 54>  H     -1.929900000      2.763900000     -0.640700000
| 55>  H     -0.853900000      0.858100000      0.169800000
| 56>  H      1.340800000     -2.713600000     -0.921900000
| 57>  H     -0.184900000     -2.878100000     -0.075600000
| 58>  H     -0.148200000     -2.378900000     -1.785200000
| 59>  H      1.386700000      0.939200000      0.131600000
| 60>  H      3.042800000     -1.574000000     -0.585400000
| 61>  H      3.703200000      1.289600000      0.259600000
| 62>  H      5.269800000     -2.215700000      0.175100000
| 63>  H      6.755400000     -1.683300000     -0.590100000
| 64>  H      5.278300000     -1.714000000     -1.533900000
| 65>  H      5.893900000      1.855100000      0.440600000
| 66>  H      8.152700000      1.480500000     -0.566500000
| 67>  H      8.128600000     -0.227600000     -0.122700000
| 68>  H      7.909900000      0.411200000      2.057300000
| 69> *
| 70> 
| 71> 
| 72> 
| 73> 
| 74>                          ****END OF INPUT****
================================================================================

                       *****************************
                       * Geometry Optimization Run *
                       *****************************

Geometry optimization settings:
Update method            Update   .... BFGS
Choice of coordinates    CoordSys .... (2022) Redundant Internals
Initial Hessian          InHess   .... Almloef's Model
Max. no of cycles        MaxIter  .... 3000

Convergence Tolerances:
Energy Change            TolE     ....  1.0000e-06 Eh
Max. Gradient            TolMAXG  ....  1.0000e-04 Eh/bohr
RMS Gradient             TolRMSG  ....  3.0000e-05 Eh/bohr
Max. Displacement        TolMAXD  ....  4.0000e-03 bohr
RMS Displacement         TolRMSD  ....  2.0000e-03 bohr
Strict Convergence                .... False

------------------------------------------------------------------------------
                        ORCA OPTIMIZATION COORDINATE SETUP
------------------------------------------------------------------------------

The optimization will be done in redundant internal coordinates (2022)
Making redundant internal coordinates   ...  (2022 redundants) done
Evaluating the initial hessian          ...  (Almloef) done
Evaluating the coordinates              ...  done
Calculating the B-matrix                .... done
Calculating the G-matrix                .... done
Diagonalizing the G-matrix              .... done
Small eigenvalue found = 8.739e-04
Small eigenvalue found = 3.534e-03
Small eigenvalue found = 5.256e-03
Small eigenvalue found = 7.576e-03
Small eigenvalue found = 1.244e-02
Small eigenvalue found = 1.736e-02
Small eigenvalue found = 2.186e-02
Small eigenvalue found = 2.655e-02
The first mode is                       ....   94
The number of degrees of freedom        ....  147

    -----------------------------------------------------------------
                    Redundant Internal Coordinates


    -----------------------------------------------------------------
         Definition                    Initial Value    Approx d2E/dq
    -----------------------------------------------------------------
      1. B(C   2,C   1)                  1.5534         0.342792   
      2. B(C   3,C   2)                  1.5181         0.390281   
      3. B(C   4,C   1)                  1.5468         0.351245   
      4. B(C   5,C   3)                  1.5212         0.385843   
      5. B(C   6,C   5)                  1.5155         0.394028   
      6. B(C   6,C   4)                  1.3569         0.705649   
      7. B(C   7,C   1)                  1.5484         0.349140   
      8. B(C   8,C   1)                  1.5459         0.352380   
      9. B(C   9,C   4)                  1.4536         0.494657   
     10. B(C  10,C   6)                  1.5114         0.400041   
     11. B(C  11,C   9)                  1.3424         0.744153   
     12. B(C  12,C  11)                  1.4672         0.470583   
     13. B(C  13,C  12)                  1.5084         0.404353   
     14. B(C  14,C  12)                  1.3507         0.721761   
     15. B(C  15,C  14)                  1.4511         0.499093   
     16. B(C  16,C  15)                  1.3446         0.738323   
     17. B(C  17,C  16)                  1.4664         0.471951   
     18. B(C  18,C  17)                  1.5064         0.407392   
     19. B(C  19,C  17)                  1.3498         0.724339   
     20. B(C  20,C  19)                  1.4969         0.421946   
     21. B(C  20,O   0)                  1.4227         0.496227   
     22. B(H  21,C   2)                  1.0974         0.350397   
     23. B(H  22,C   2)                  1.0991         0.348254   
     24. B(H  23,C   3)                  1.0960         0.352272   
     25. B(H  24,C   3)                  1.0961         0.352095   
     26. B(H  25,C   5)                  1.0972         0.350738   
     27. B(H  26,C   5)                  1.0978         0.349943   
     28. B(H  27,C   7)                  1.0962         0.351973   
     29. B(H  28,C   7)                  1.0954         0.353075   
     30. B(H  29,C   7)                  1.0969         0.351145   
     31. B(H  30,C   8)                  1.0960         0.352191   
     32. B(H  31,C   8)                  1.0963         0.351826   
     33. B(H  32,C   8)                  1.0954         0.353054   
     34. B(H  33,C   9)                  1.0837         0.368475   
     35. B(H  34,C  10)                  1.0969         0.351070   
     36. B(H  35,C  10)                  1.0928         0.356378   
     37. B(H  36,C  10)                  1.0944         0.354315   
     38. B(H  37,C  11)                  1.0882         0.362484   
     39. B(H  38,C  13)                  1.0918         0.357767   
     40. B(H  39,C  13)                  1.0958         0.352523   
     41. B(H  40,C  13)                  1.0958         0.352499   
     42. B(H  41,C  14)                  1.0910         0.358802   
     43. B(H  42,C  15)                  1.0830         0.369527   
     44. B(H  43,C  16)                  1.0902         0.359870   
     45. B(H  44,C  18)                  1.0957         0.352629   
     46. B(H  45,C  18)                  1.0917         0.357903   
     47. B(H  46,C  18)                  1.0957         0.352589   
     48. B(H  47,C  19)                  1.0908         0.358992   
     49. B(H  48,C  20)                  1.0944         0.354348   
     50. B(H  49,C  20)                  1.0904         0.359515   
     51. B(H  50,O   0)                  0.9727         0.496221   
     52. A(C  20,O   0,H  50)          107.5850         0.353487   
     53. A(C   2,C   1,C   7)          105.9777         0.353975   
     54. A(C   2,C   1,C   4)          111.5828         0.354336   
     55. A(C   7,C   1,C   8)          108.5292         0.355635   
     56. A(C   4,C   1,C   7)          112.0929         0.355440   
     57. A(C   4,C   1,C   8)          109.5536         0.355998   
     58. A(C   2,C   1,C   8)          108.9779         0.354530   
     59. A(C   1,C   2,H  21)          110.4658         0.318360   
     60. A(H  21,C   2,H  22)          106.1711         0.288082   
     61. A(C   1,C   2,H  22)          109.9484         0.318042   
     62. A(C   1,C   2,C   3)          112.2342         0.360741   
     63. A(C   3,C   2,H  22)          108.4630         0.324868   
     64. A(C   3,C   2,H  21)          109.3565         0.325196   
     65. A(C   2,C   3,C   5)          110.0396         0.368116   
     66. A(C   5,C   3,H  23)          110.1015         0.324870   
     67. A(H  23,C   3,H  24)          106.5155         0.288819   
     68. A(C   5,C   3,H  24)          109.5373         0.324843   
     69. A(C   2,C   3,H  24)          110.0174         0.325454   
     70. A(C   2,C   3,H  23)          110.5665         0.325481   
     71. A(C   1,C   4,C   9)          115.6049         0.377301   
     72. A(C   6,C   4,C   9)          122.1438         0.426614   
     73. A(C   1,C   4,C   6)          122.2418         0.401439   
     74. A(H  25,C   5,H  26)          106.8715         0.288344   
     75. A(C   3,C   5,H  25)          108.0555         0.324637   
     76. A(C   6,C   5,H  26)          108.1765         0.325638   
     77. A(C   3,C   5,H  26)          109.1332         0.324516   
     78. A(C   6,C   5,H  25)          109.6933         0.325759   
     79. A(C   3,C   5,C   6)          114.6383         0.368720   
     80. A(C   4,C   6,C   5)          122.4983         0.409674   
     81. A(C   5,C   6,C  10)          111.7328         0.371017   
     82. A(C   4,C   6,C  10)          125.7688         0.410775   
     83. A(H  28,C   7,H  29)          106.3356         0.288799   
     84. A(H  27,C   7,H  29)          107.5659         0.288658   
     85. A(H  27,C   7,H  28)          108.1657         0.288906   
     86. A(C   1,C   7,H  28)          112.3405         0.319712   
     87. A(C   1,C   7,H  27)          111.3415         0.319549   
     88. A(C   1,C   7,H  29)          110.8409         0.319426   
     89. A(H  30,C   8,H  32)          107.7667         0.288931   
     90. A(C   1,C   8,H  32)          111.8803         0.320192   
     91. A(H  30,C   8,H  31)          107.1292         0.288774   
     92. A(C   1,C   8,H  31)          111.4510         0.320010   
     93. A(C   1,C   8,H  30)          111.1564         0.320064   
     94. A(H  31,C   8,H  32)          107.2200         0.288884   
     95. A(C  11,C   9,H  33)          120.0815         0.365475   
     96. A(C   4,C   9,H  33)          116.7200         0.341065   
     97. A(C   4,C   9,C  11)          123.1499         0.430699   
     98. A(H  34,C  10,H  36)          107.4503         0.288948   
     99. A(C   6,C  10,H  36)          110.6925         0.327118   
    100. A(H  34,C  10,H  35)          104.8731         0.289211   
    101. A(C   6,C  10,H  35)          113.6411         0.327432   
    102. A(C   6,C  10,H  34)          109.8315         0.326623   
    103. A(H  35,C  10,H  36)          110.0269         0.289629   
    104. A(C   9,C  11,C  12)          126.6962         0.426862   
    105. A(C  12,C  11,H  37)          114.0421         0.337312   
    106. A(C   9,C  11,H  37)          119.1028         0.364451   
    107. A(C  13,C  12,C  14)          124.6267         0.413209   
    108. A(C  11,C  12,C  14)          118.2238         0.424533   
    109. A(C  11,C  12,C  13)          117.1495         0.383294   
    110. A(H  39,C  13,H  40)          108.7444         0.288903   
    111. A(H  38,C  13,H  40)          106.5525         0.289572   
    112. A(C  12,C  13,H  40)          110.4799         0.327419   
    113. A(H  38,C  13,H  39)          106.4692         0.289575   
    114. A(C  12,C  13,H  39)          110.4999         0.327423   
    115. A(C  12,C  13,H  38)          113.8635         0.328221   
    116. A(C  12,C  14,C  15)          127.7539         0.429030   
    117. A(C  15,C  14,H  41)          113.9749         0.340059   
    118. A(C  12,C  14,H  41)          118.2711         0.361922   
    119. A(C  14,C  15,C  16)          122.5304         0.430781   
    120. A(C  16,C  15,H  42)          119.8044         0.365161   
    121. A(C  14,C  15,H  42)          117.6652         0.341738   
    122. A(C  15,C  16,C  17)          126.7389         0.426482   
    123. A(C  17,C  16,H  43)          115.3173         0.337068   
    124. A(C  15,C  16,H  43)          117.9438         0.363511   
    125. A(C  18,C  17,C  19)          124.0008         0.414022   
    126. A(C  16,C  17,C  19)          118.4660         0.425025   
    127. A(C  16,C  17,C  18)          117.5330         0.383987   
    128. A(H  45,C  18,H  46)          106.5420         0.289601   
    129. A(H  44,C  18,H  46)          108.7348         0.288928   
    130. A(C  17,C  18,H  46)          110.5461         0.327838   
    131. A(H  44,C  18,H  45)          106.6057         0.289606   
    132. A(C  17,C  18,H  45)          113.6659         0.328648   
    133. A(C  17,C  18,H  44)          110.5207         0.327844   
    134. A(C  17,C  19,C  20)          128.6111         0.416614   
    135. A(C  20,C  19,H  47)          113.1003         0.330725   
    136. A(C  17,C  19,H  47)          118.2881         0.362175   
    137. A(O   0,C  20,C  19)          108.4578         0.387260   
    138. A(H  48,C  20,H  49)          107.7696         0.290031   
    139. A(C  19,C  20,H  49)          114.8177         0.330805   
    140. A(O   0,C  20,H  49)          108.2104         0.337781   
    141. A(C  19,C  20,H  48)          109.4775         0.330014   
    142. A(O   0,C  20,H  48)          107.9009         0.336967   
    143. D(C   3,C   2,C   1,C   7)   -166.6774         0.009500   
    144. D(C   3,C   2,C   1,C   8)     76.7056         0.009500   
    145. D(H  21,C   2,C   1,C   8)    -45.6217         0.009500   
    146. D(C   3,C   2,C   1,C   4)    -44.4023         0.009500   
    147. D(H  21,C   2,C   1,C   7)     70.9953         0.009500   
    148. D(H  21,C   2,C   1,C   4)   -166.7296         0.009500   
    149. D(C   5,C   3,C   2,H  22)    -61.2665         0.012109   
    150. D(H  23,C   3,C   2,H  22)    176.8905         0.012109   
    151. D(C   5,C   3,C   2,C   1)     60.4062         0.012109   
    152. D(H  23,C   3,C   2,C   1)    -61.4369         0.012109   
    153. D(H  23,C   3,C   2,H  21)     61.5178         0.012109   
    154. D(C   5,C   3,C   2,H  21)   -176.6392         0.012109   
    155. D(C   6,C   4,C   1,C   8)   -107.8528         0.009316   
    156. D(C   6,C   4,C   1,C   7)    131.6078         0.009316   
    157. D(C   6,C   4,C   1,C   2)     12.9194         0.009316   
    158. D(C   9,C   4,C   1,C   2)   -168.1767         0.009316   
    159. D(C   9,C   4,C   1,C   7)    -49.4883         0.009316   
    160. D(H  25,C   5,C   3,C   2)   -166.6113         0.011847   
    161. D(H  25,C   5,C   3,H  23)    -44.4922         0.011847   
    162. D(C   6,C   5,C   3,H  24)   -165.0332         0.011847   
    163. D(C   6,C   5,C   3,C   2)    -43.9649         0.011847   
    164. D(H  25,C   5,C   3,H  24)     72.3205         0.011847   
    165. D(C   6,C   5,C   3,H  23)     78.1542         0.011847   
    166. D(C   4,C   6,C   5,H  26)   -108.7308         0.011539   
    167. D(C   4,C   6,C   5,H  25)    135.0401         0.011539   
    168. D(C   4,C   6,C   5,C   3)     13.2828         0.011539   
    169. D(C  10,C   6,C   4,C   9)      3.6945         0.035118   
    170. D(C  10,C   6,C   4,C   1)   -177.4730         0.035118   
    171. D(C   5,C   6,C   4,C   9)   -176.2106         0.035118   
    172. D(C  10,C   6,C   5,C   3)   -166.6342         0.011539   
    173. D(C   5,C   6,C   4,C   1)      2.6220         0.035118   
    174. D(C  10,C   6,C   5,H  25)    -44.8770         0.011539   
    175. D(H  28,C   7,C   1,C   8)    -50.6247         0.009825   
    176. D(H  28,C   7,C   1,C   4)     70.5069         0.009825   
    177. D(H  28,C   7,C   1,C   2)   -167.5437         0.009825   
    178. D(H  27,C   7,C   1,C   8)   -172.1213         0.009825   
    179. D(H  27,C   7,C   1,C   4)    -50.9897         0.009825   
    180. D(H  27,C   7,C   1,C   2)     70.9597         0.009825   
    181. D(H  31,C   8,C   1,C   7)     58.0422         0.009994   
    182. D(H  31,C   8,C   1,C   4)    -64.6407         0.009994   
    183. D(H  31,C   8,C   1,C   2)    173.0196         0.009994   
    184. D(H  30,C   8,C   1,C   7)    -61.3890         0.009994   
    185. D(H  30,C   8,C   1,C   4)    175.9281         0.009994   
    186. D(H  30,C   8,C   1,C   2)     53.5884         0.009994   
    187. D(H  33,C   9,C   4,C   6)   -137.4527         0.016663   
    188. D(H  33,C   9,C   4,C   1)     43.6423         0.016663   
    189. D(C  11,C   9,C   4,C   6)     40.0101         0.016663   
    190. D(C  11,C   9,C   4,C   1)   -138.8950         0.016663   
    191. D(H  36,C  10,C   6,C   4)    -97.6711         0.011877   
    192. D(H  35,C  10,C   6,C   5)   -153.3579         0.011877   
    193. D(H  35,C  10,C   6,C   4)     26.7283         0.011877   
    194. D(H  34,C  10,C   6,C   5)    -36.2462         0.011877   
    195. D(H  34,C  10,C   6,C   4)    143.8400         0.011877   
    196. D(H  37,C  11,C   9,H  33)   -177.7487         0.039433   
    197. D(H  37,C  11,C   9,C   4)      4.8704         0.039433   
    198. D(C  12,C  11,C   9,H  33)     -2.6219         0.039433   
    199. D(C  12,C  11,C   9,C   4)    179.9972         0.039433   
    200. D(C  14,C  12,C  11,H  37)     -4.6680         0.015079   
    201. D(C  14,C  12,C  11,C   9)    179.9939         0.015079   
    202. D(C  13,C  12,C  11,H  37)    175.3491         0.015079   
    203. D(C  13,C  12,C  11,C   9)      0.0111         0.015079   
    204. D(H  38,C  13,C  12,C  14)      0.6654         0.012123   
    205. D(H  38,C  13,C  12,C  11)   -179.3530         0.012123   
    206. D(H  40,C  13,C  12,C  11)     60.7947         0.012123   
    207. D(H  39,C  13,C  12,C  14)    120.4247         0.012123   
    208. D(H  39,C  13,C  12,C  11)    -59.5937         0.012123   
    209. D(H  41,C  14,C  12,C  13)    179.9244         0.036886   
    210. D(H  41,C  14,C  12,C  11)     -0.0570         0.036886   
    211. D(C  15,C  14,C  12,C  13)      0.0298         0.036886   
    212. D(C  15,C  14,C  12,C  11)   -179.9517         0.036886   
    213. D(H  42,C  15,C  14,H  41)   -179.8742         0.016966   
    214. D(H  42,C  15,C  14,C  12)      0.0243         0.016966   
    215. D(C  16,C  15,C  14,H  41)      0.1073         0.016966   
    216. D(C  16,C  15,C  14,C  12)   -179.9942         0.016966   
    217. D(H  43,C  16,C  15,H  42)   -179.9950         0.038760   
    218. D(H  43,C  16,C  15,C  14)      0.0239         0.038760   
    219. D(C  17,C  16,C  15,H  42)     -0.0100         0.038760   
    220. D(C  17,C  16,C  15,C  14)   -179.9911         0.038760   
    221. D(C  19,C  17,C  16,H  43)     -0.0210         0.015166   
    222. D(C  19,C  17,C  16,C  15)    179.9937         0.015166   
    223. D(C  18,C  17,C  16,H  43)   -179.8748         0.015166   
    224. D(C  18,C  17,C  16,C  15)      0.1399         0.015166   
    225. D(H  46,C  18,C  17,C  16)     59.8978         0.012298   
    226. D(H  45,C  18,C  17,C  19)     -0.1956         0.012298   
    227. D(H  45,C  18,C  17,C  16)    179.6493         0.012298   
    228. D(H  44,C  18,C  17,C  19)    119.6197         0.012298   
    229. D(H  44,C  18,C  17,C  16)    -60.5354         0.012298   
    230. D(H  47,C  19,C  17,C  18)    179.5202         0.037174   
    231. D(H  47,C  19,C  17,C  16)     -0.3234         0.037174   
    232. D(C  20,C  19,C  17,C  18)     -0.2165         0.037174   
    233. D(C  20,C  19,C  17,C  16)    179.9399         0.037174   
    234. D(H  49,C  20,C  19,C  17)     -0.8857         0.013162   
    235. D(H  48,C  20,C  19,H  47)    -59.2876         0.013162   
    236. D(H  48,C  20,C  19,C  17)    120.4604         0.013162   
    237. D(O   0,C  20,C  19,H  47)     58.2131         0.013162   
    238. D(O   0,C  20,C  19,C  17)   -122.0390         0.013162   
    239. D(H  49,C  20,O   0,H  50)    -60.1126         0.019458   
    240. D(H  48,C  20,O   0,H  50)   -176.4650         0.019458   
    241. D(C  19,C  20,O   0,H  50)     65.0314         0.019458   
    -----------------------------------------------------------------

Number of atoms                         .... 51
Number of degrees of freedom            .... 241


         *************************************************************
         *                GEOMETRY OPTIMIZATION CYCLE   1            *
         *************************************************************
---------------------------------
CARTESIAN COORDINATES (ANGSTROEM)
---------------------------------
  O      8.230900    1.089600    1.438500
  C     -4.506500   -0.752900    0.532700
  C     -5.865200   -0.005800    0.438600
  C     -5.724200    1.480000    0.716300
  C     -3.378200    0.025800   -0.183600
  C     -4.784400    2.113100   -0.298600
  C     -3.526500    1.315500   -0.578300
  C     -4.742400   -2.147500   -0.097400
  C     -4.139200   -0.942600    2.022300
  C     -2.138900   -0.706800   -0.384400
  C     -2.500800    2.133100   -1.329100
  C     -0.925800   -0.158500   -0.211700
  C      0.370100   -0.822400   -0.391800
  C      0.348900   -2.270200   -0.814700
  C      1.492200   -0.103800   -0.170500
  C      2.868900   -0.547700   -0.286600
  C      3.913100    0.262400   -0.039200
  C      5.334500   -0.087000   -0.127400
  C      5.681500   -1.493900   -0.539100
  C      6.249500    0.862900    0.159500
  C      7.742500    0.756600    0.144400
  H     -6.590800   -0.439400    1.138500
  H     -6.294400   -0.133100   -0.565200
  H     -5.349600    1.647900    1.732500
  H     -6.704800    1.966700    0.661300
  H     -4.515200    3.112800    0.064600
  H     -5.319700    2.252100   -1.246900
  H     -4.869500   -2.078000   -1.184000
  H     -3.919500   -2.841100    0.106500
  H     -5.647000   -2.613000    0.312600
  H     -4.953500   -1.428800    2.571700
  H     -3.249700   -1.572800    2.138800
  H     -3.926900    0.012300    2.515200
  H     -2.228300   -1.730500   -0.728700
  H     -3.004000    2.796800   -2.042900
  H     -1.820500    1.531500   -1.937000
  H     -1.929900    2.763900   -0.640700
  H     -0.853900    0.858100    0.169800
  H      1.340800   -2.713600   -0.921900
  H     -0.184900   -2.878100   -0.075600
  H     -0.148200   -2.378900   -1.785200
  H      1.386700    0.939200    0.131600
  H      3.042800   -1.574000   -0.585400
  H      3.703200    1.289600    0.259600
  H      5.269800   -2.215700    0.175100
  H      6.755400   -1.683300   -0.590100
  H      5.278300   -1.714000   -1.533900
  H      5.893900    1.855100    0.440600
  H      8.152700    1.480500   -0.566500
  H      8.128600   -0.227600   -0.122700
  H      7.909900    0.411200    2.057300

----------------------------
CARTESIAN COORDINATES (A.U.)
----------------------------
  NO LB      ZA    FRAG     MASS         X           Y           Z
   0 O     8.0000    0    15.999   15.554147    2.059046    2.718371
   1 C     6.0000    0    12.011   -8.516051   -1.422775    1.006657
   2 C     6.0000    0    12.011  -11.083622   -0.010960    0.828834
   3 C     6.0000    0    12.011  -10.817170    2.796795    1.353611
   4 C     6.0000    0    12.011   -6.383873    0.048755   -0.346954
   5 C     6.0000    0    12.011   -9.041206    3.993180   -0.564272
   6 C     6.0000    0    12.011   -6.664119    2.485935   -1.092829
   7 C     6.0000    0    12.011   -8.961837   -4.058187   -0.184059
   8 C     6.0000    0    12.011   -7.821954   -1.781256    3.821593
   9 C     6.0000    0    12.011   -4.041935   -1.335658   -0.726411
  10 C     6.0000    0    12.011   -4.725827    4.030975   -2.511635
  11 C     6.0000    0    12.011   -1.749508   -0.299522   -0.400055
  12 C     6.0000    0    12.011    0.699388   -1.554111   -0.740395
  13 C     6.0000    0    12.011    0.659325   -4.290056   -1.539560
  14 C     6.0000    0    12.011    2.819849   -0.196154   -0.322198
  15 C     6.0000    0    12.011    5.421435   -1.035003   -0.541596
  16 C     6.0000    0    12.011    7.394687    0.495864   -0.074077
  17 C     6.0000    0    12.011   10.080744   -0.164406   -0.240751
  18 C     6.0000    0    12.011   10.736479   -2.823062   -1.018751
  19 C     6.0000    0    12.011   11.809843    1.630645    0.301411
  20 C     6.0000    0    12.011   14.631205    1.429767    0.272876
  21 H     1.0000    0     1.008  -12.454807   -0.830346    2.151453
  22 H     1.0000    0     1.008  -11.894692   -0.251523   -1.068073
  23 H     1.0000    0     1.008  -10.109279    3.114080    3.273951
  24 H     1.0000    0     1.008  -12.670236    3.716524    1.249676
  25 H     1.0000    0     1.008   -8.532491    5.882340    0.122076
  26 H     1.0000    0     1.008  -10.052776    4.255852   -2.356300
  27 H     1.0000    0     1.008   -9.202021   -3.926851   -2.237436
  28 H     1.0000    0     1.008   -7.406782   -5.368901    0.201256
  29 H     1.0000    0     1.008  -10.671283   -4.937854    0.590728
  30 H     1.0000    0     1.008   -9.360758   -2.700041    4.859809
  31 H     1.0000    0     1.008   -6.141043   -2.972161    4.041746
  32 H     1.0000    0     1.008   -7.420766    0.023244    4.753039
  33 H     1.0000    0     1.008   -4.210877   -3.270171   -1.377043
  34 H     1.0000    0     1.008   -5.676737    5.285186   -3.860522
  35 H     1.0000    0     1.008   -3.440246    2.894116   -3.660400
  36 H     1.0000    0     1.008   -3.646982    5.223014   -1.210748
  37 H     1.0000    0     1.008   -1.613637    1.621574    0.320875
  38 H     1.0000    0     1.008    2.533745   -5.127961   -1.742139
  39 H     1.0000    0     1.008   -0.349410   -5.438821   -0.142863
  40 H     1.0000    0     1.008   -0.280057   -4.495469   -3.373539
  41 H     1.0000    0     1.008    2.620483    1.774831    0.248688
  42 H     1.0000    0     1.008    5.750059   -2.974429   -1.106246
  43 H     1.0000    0     1.008    6.998034    2.436991    0.490573
  44 H     1.0000    0     1.008    9.958479   -4.187066    0.330891
  45 H     1.0000    0     1.008   12.765856   -3.180976   -1.115127
  46 H     1.0000    0     1.008    9.974541   -3.238991   -2.898651
  47 H     1.0000    0     1.008   11.137857    3.505631    0.832613
  48 H     1.0000    0     1.008   15.406370    2.797740   -1.070530
  49 H     1.0000    0     1.008   15.360828   -0.430102   -0.231869
  50 H     1.0000    0     1.008   14.947545    0.777055    3.887734

--------------------------------
INTERNAL COORDINATES (ANGSTROEM)
--------------------------------
 O      0   0   0     0.000000000000     0.00000000     0.00000000
 C      1   0   0    12.901807572972     0.00000000     0.00000000
 C      2   1   0     1.553408803245   143.04244626     0.00000000
 C      3   2   1     1.518090883314   112.23419209   349.20880004
 C      2   1   4     1.546777382172    40.57639026    58.61375002
 C      4   3   2     1.521204016561   110.03955804    60.40617255
 C      5   2   1     1.356874006679   122.24178709   223.69320488
 C      2   1   5     1.548413375039   107.91471681   103.30862682
 C      2   1   5     1.545898942363    73.45940045   207.92768488
 C      5   2   1     1.453577617467   115.60494150    42.59709280
 C      7   5   2     1.511367225396   125.76883280   182.52704159
 C     10   5   2     1.342411930072   123.14990468   221.10503659
 C     12  10   5     1.467159169961   126.69618364   179.99718321
 C     13  12  10     1.508449100898   117.14954547     0.00000000
 C     13  12  10     1.350728714435   118.22378013   179.99392373
 C     15  13  12     1.451147583811   127.75385970   180.04832094
 C     16  15  13     1.344552866198   122.53044854   180.00578722
 C     17  16  15     1.466368834912   126.73887514   180.00887439
 C     18  17  16     1.506410800545   117.53296719     0.13993784
 C     18  17  16     1.349757985714   118.46601795   179.99372839
 C      1   2   3     1.422715140146    64.13838247   258.72595420
 H      3   2   1     1.097435342059   110.46584575   226.88145915
 H      3   2   1     1.099105258836   109.94838175   110.02861549
 H      4   3   2     1.095982668659   110.56647307   298.56310960
 H      4   3   2     1.096119633069   110.01744584   181.18622430
 H      6   4   3     1.097170437990   108.05548710   193.38873371
 H      6   4   3     1.097788677296   109.13321285    77.52682734
 H      8   2   1     1.096213583204   111.34149646   265.91979526
 H      8   2   1     1.095363218298   112.34049537    27.41642756
 H      8   2   1     1.096855236574   110.84085607   146.22073969
 H      9   2   1     1.096045295597   111.15641959   194.79024665
 H      9   2   1     1.096327752089   111.45095787   314.22148472
 H      9   2   1     1.095379253957   111.88030412    74.25866834
 H     10   5   2     1.083741915771   116.71999468    43.64226675
 H     11   7   5     1.096913109594   109.83148792   143.84002548
 H     11   7   5     1.092828010256   113.64106531    26.72830554
 H     11   7   5     1.094408520617   110.69249434   262.32889426
 H     12  10   5     1.088203758494   119.10275545     4.87038144
 H     14  13  12     1.091769668932   113.86354835   180.64698170
 H     14  13  12     1.095789058168   110.49986285   300.40627541
 H     14  13  12     1.095807624540   110.47988961    60.79470071
 H     15  13  12     1.090982887125   118.27113311   359.94299474
 H     16  15  13     1.082965530384   117.66517778     0.02430015
 H     17  16  15     1.090173972355   117.94381188     0.02393535
 H     19  18  17     1.095706972689   110.52065800   299.46461190
 H     19  18  17     1.091665960814   113.66594171   179.64934719
 H     19  18  17     1.095737783414   110.54611516    59.89779557
 H     20  18  17     1.090838856110   118.28814915   359.67662878
 H     21   1   2     1.094382958566   107.90087126   130.22470743
 H     21   1   2     1.090442689920   108.21043532   246.57713430
 H      1   2   3     0.972718355949    67.62082814   134.48432421

---------------------------
INTERNAL COORDINATES (A.U.)
---------------------------
 O      0   0   0     0.000000000000     0.00000000     0.00000000
 C      1   0   0    24.380882945468     0.00000000     0.00000000
 C      2   1   0     2.935517212156   143.04244626     0.00000000
 C      3   2   1     2.868776015865   112.23419209   349.20880004
 C      2   1   4     2.922985642449    40.57639026    58.61375002
 C      4   3   2     2.874658985120   110.03955804    60.40617255
 C      5   2   1     2.564120270859   122.24178709   223.69320488
 C      2   1   5     2.926077220925   107.91471681   103.30862682
 C      2   1   5     2.921325631785    73.45940045   207.92768488
 C      5   2   1     2.746863611410   115.60494150    42.59709280
 C      7   5   2     2.856070143782   125.76883280   182.52704159
 C     10   5   2     2.536790906745   123.14990468   221.10503659
 C     12  10   5     2.772529026097   126.69618364   179.99718321
 C     13  12  10     2.850555687657   117.14954547     0.00000000
 C     13  12  10     2.552507351506   118.22378013   179.99392373
 C     15  13  12     2.742271513304   127.75385970   180.04832094
 C     16  15  13     2.540836689692   122.53044854   180.00578722
 C     17  16  15     2.771035509300   126.73887514   180.00887439
 C     18  17  16     2.846703858212   117.53296719     0.13993784
 C     18  17  16     2.550672940074   118.46601795   179.99372839
 C      1   2   3     2.688541981459    64.13838247   258.72595420
 H      3   2   1     2.073852246178   110.46584575   226.88145915
 H      3   2   1     2.077007931552   109.94838175   110.02861549
 H      4   3   2     2.071107091289   110.56647307   298.56310960
 H      4   3   2     2.071365916515   110.01744584   181.18622430
 H      6   4   3     2.073351650036   108.05548710   193.38873371
 H      6   4   3     2.074519953010   109.13321285    77.52682734
 H      8   2   1     2.071543456539   111.34149646   265.91979526
 H      8   2   1     2.069936499754   112.34049537    27.41642756
 H      8   2   1     2.072756005682   110.84085607   146.22073969
 H      9   2   1     2.071225439051   111.15641959   194.79024665
 H      9   2   1     2.071759204465   111.45095787   314.22148472
 H      9   2   1     2.069966802758   111.88030412    74.25866834
 H     10   5   2     2.047975420659   116.71999468    43.64226675
 H     11   7   5     2.072865369841   109.83148792   143.84002548
 H     11   7   5     2.065145650862   113.64106531    26.72830554
 H     11   7   5     2.068132382597   110.69249434   262.32889426
 H     12  10   5     2.056407081457   119.10275545     4.87038144
 H     14  13  12     2.063145675603   113.86354835   180.64698170
 H     14  13  12     2.070741220484   110.49986285   300.40627541
 H     14  13  12     2.070776305843   110.47988961    60.79470071
 H     15  13  12     2.061658873461   118.27113311   359.94299474
 H     16  15  13     2.046508264903   117.66517778     0.02430015
 H     17  16  15     2.060130246080   117.94381188     0.02393535
 H     19  18  17     2.070586101411   110.52065800   299.46461190
 H     19  18  17     2.062949695663   113.66594171   179.64934719
 H     19  18  17     2.070644325241   110.54611516    59.89779557
 H     20  18  17     2.061386694288   118.28814915   359.67662878
 H     21   1   2     2.068084077321   107.90087126   130.22470743
 H     21   1   2     2.060638048685   108.21043532   246.57713430
 H      1   2   3     1.838171298182    67.62082814   134.48432421

---------------------
BASIS SET INFORMATION
---------------------
There are 3 groups of distinct atoms

 Group   1 Type O   : 11s6p2d contracted to 5s3p2d pattern {62111/411/11}
 Group   2 Type C   : 11s6p1d contracted to 5s3p1d pattern {62111/411/1}
 Group   3 Type H   : 5s contracted to 3s pattern {311}

Atom   0O    basis set group =>   1
Atom   1C    basis set group =>   2
Atom   2C    basis set group =>   2
Atom   3C    basis set group =>   2
Atom   4C    basis set group =>   2
Atom   5C    basis set group =>   2
Atom   6C    basis set group =>   2
Atom   7C    basis set group =>   2
Atom   8C    basis set group =>   2
Atom   9C    basis set group =>   2
Atom  10C    basis set group =>   2
Atom  11C    basis set group =>   2
Atom  12C    basis set group =>   2
Atom  13C    basis set group =>   2
Atom  14C    basis set group =>   2
Atom  15C    basis set group =>   2
Atom  16C    basis set group =>   2
Atom  17C    basis set group =>   2
Atom  18C    basis set group =>   2
Atom  19C    basis set group =>   2
Atom  20C    basis set group =>   2
Atom  21H    basis set group =>   3
Atom  22H    basis set group =>   3
Atom  23H    basis set group =>   3
Atom  24H    basis set group =>   3
Atom  25H    basis set group =>   3
Atom  26H    basis set group =>   3
Atom  27H    basis set group =>   3
Atom  28H    basis set group =>   3
Atom  29H    basis set group =>   3
Atom  30H    basis set group =>   3
Atom  31H    basis set group =>   3
Atom  32H    basis set group =>   3
Atom  33H    basis set group =>   3
Atom  34H    basis set group =>   3
Atom  35H    basis set group =>   3
Atom  36H    basis set group =>   3
Atom  37H    basis set group =>   3
Atom  38H    basis set group =>   3
Atom  39H    basis set group =>   3
Atom  40H    basis set group =>   3
Atom  41H    basis set group =>   3
Atom  42H    basis set group =>   3
Atom  43H    basis set group =>   3
Atom  44H    basis set group =>   3
Atom  45H    basis set group =>   3
Atom  46H    basis set group =>   3
Atom  47H    basis set group =>   3
Atom  48H    basis set group =>   3
Atom  49H    basis set group =>   3
Atom  50H    basis set group =>   3
---------------------------------
AUXILIARY/J BASIS SET INFORMATION
---------------------------------
There are 3 groups of distinct atoms

 Group   1 Type O   : 8s3p3d contracted to 6s3p3d pattern {311111/111/111}
 Group   2 Type C   : 8s3p3d contracted to 6s3p3d pattern {311111/111/111}
 Group   3 Type H   : 5s2p contracted to 3s1p pattern {311/2}

Atom   0O    basis set group =>   1
Atom   1C    basis set group =>   2
Atom   2C    basis set group =>   2
Atom   3C    basis set group =>   2
Atom   4C    basis set group =>   2
Atom   5C    basis set group =>   2
Atom   6C    basis set group =>   2
Atom   7C    basis set group =>   2
Atom   8C    basis set group =>   2
Atom   9C    basis set group =>   2
Atom  10C    basis set group =>   2
Atom  11C    basis set group =>   2
Atom  12C    basis set group =>   2
Atom  13C    basis set group =>   2
Atom  14C    basis set group =>   2
Atom  15C    basis set group =>   2
Atom  16C    basis set group =>   2
Atom  17C    basis set group =>   2
Atom  18C    basis set group =>   2
Atom  19C    basis set group =>   2
Atom  20C    basis set group =>   2
Atom  21H    basis set group =>   3
Atom  22H    basis set group =>   3
Atom  23H    basis set group =>   3
Atom  24H    basis set group =>   3
Atom  25H    basis set group =>   3
Atom  26H    basis set group =>   3
Atom  27H    basis set group =>   3
Atom  28H    basis set group =>   3
Atom  29H    basis set group =>   3
Atom  30H    basis set group =>   3
Atom  31H    basis set group =>   3
Atom  32H    basis set group =>   3
Atom  33H    basis set group =>   3
Atom  34H    basis set group =>   3
Atom  35H    basis set group =>   3
Atom  36H    basis set group =>   3
Atom  37H    basis set group =>   3
Atom  38H    basis set group =>   3
Atom  39H    basis set group =>   3
Atom  40H    basis set group =>   3
Atom  41H    basis set group =>   3
Atom  42H    basis set group =>   3
Atom  43H    basis set group =>   3
Atom  44H    basis set group =>   3
Atom  45H    basis set group =>   3
Atom  46H    basis set group =>   3
Atom  47H    basis set group =>   3
Atom  48H    basis set group =>   3
Atom  49H    basis set group =>   3
Atom  50H    basis set group =>   3


           ************************************************************
           *        Program running with 16 parallel MPI-processes    *
           *              working on a common directory               *
           ************************************************************
------------------------------------------------------------------------------
                             ORCA STARTUP CALCULATIONS
                           -- RI-GTO INTEGRALS CHOSEN --
------------------------------------------------------------------------------
------------------------------------------------------------------------------
                   ___                                                        
                  /   \      - P O W E R E D   B Y -                         
                 /     \                                                     
                 |  |  |   _    _      __       _____    __    __             
                 |  |  |  | |  | |    /  \     |  _  \  |  |  /  |          
                  \  \/   | |  | |   /    \    | | | |  |  | /  /          
                 / \  \   | |__| |  /  /\  \   | |_| |  |  |/  /          
                |  |  |   |  __  | /  /__\  \  |    /   |      \           
                |  |  |   | |  | | |   __   |  |    \   |  |\   \          
                \     /   | |  | | |  |  |  |  | |\  \  |  | \   \       
                 \___/    |_|  |_| |__|  |__|  |_| \__\ |__|  \__/        
                                                                              
                      - O R C A' S   B I G   F R I E N D -                    
                                      &                                       
                       - I N T E G R A L  F E E D E R -                       
                                                                              
 v1 FN, 2020, v2 2021, v3 2022-2024                                           
------------------------------------------------------------------------------


----------------------
SHARK INTEGRAL PACKAGE
----------------------

Number of atoms                             ...     51
Number of basis functions                   ...    494
Number of shells                            ...    280
Maximum angular momentum                    ...      2
Integral batch strategy                     ... SHARK/LIBINT Hybrid
RI-J (if used) integral strategy            ... SPLIT-RIJ (Revised 2003 algorithm where possible)
Printlevel                                  ...      1
Contraction scheme used                     ... SEGMENTED contraction
Prescreening option                         ... SCHWARTZ
   Thresh                                   ... 2.500e-11
   Tcut                                     ... 2.500e-12
   Tpresel                                  ... 2.500e-12 
Coulomb Range Separation                    ... NOT USED
Exchange Range Separation                   ... NOT USED
Multipole approximations                    ... NOT USED
Finite Nucleus Model                        ... NOT USED
CABS basis                                  ... NOT available
Auxiliary Coulomb fitting basis             ... AVAILABLE
   # of basis functions in Aux-J            ...    810
   # of shells in Aux-J                     ...    372
   Maximum angular momentum in Aux-J        ...      2
Auxiliary J/K fitting basis                 ... NOT available
Auxiliary Correlation fitting basis         ... NOT available
Auxiliary 'external' fitting basis          ... NOT available

Checking pre-screening integrals            ... done (  0.0 sec) Dimension = 280
Check shell pair data                       ... done (  0.0 sec)
Shell pair information
Shell pair cut-off parameter TPreSel        ...   2.5e-12
Total number of shell pairs                 ...     39340
Shell pairs after pre-screening             ...     24209
Total number of primitive shell pairs       ...    140737
Primitive shell pairs kept                  ...     55498
          la=0 lb=0:  11207 shell pairs
          la=1 lb=0:   8236 shell pairs
          la=1 lb=1:   1497 shell pairs
          la=2 lb=0:   2280 shell pairs
          la=2 lb=1:    864 shell pairs
          la=2 lb=2:    125 shell pairs

Calculating one electron integrals          ... done (  0.4 sec)
Calculating RI/J V-Matrix + Cholesky decomp.... done (  0.3 sec)
Calculating Nuclear repulsion               ... done (  0.0 sec) ENN=   1555.999291491821 Eh

Diagonalization of the overlap matrix:
Smallest eigenvalue                        ... 2.085e-05
Time for diagonalization                   ...    0.308 sec
Threshold for overlap eigenvalues          ... 1.000e-07
Number of eigenvalues below threshold      ... 0
Time for construction of square roots      ...    0.013 sec
Total time needed                          ...    0.323 sec

-------------------
DFT GRID GENERATION
-------------------

General Integration Accuracy     IntAcc      ... 4.959
Radial Grid Type                 RadialGrid  ... OptM3 with GC (2021)
Angular Grid (max. ang.)         AngularGrid ... 6 (Lebedev-590)
Angular grid pruning method      GridPruning ... 4 (adaptive)
Weight generation scheme         WeightScheme... mBecke (2022)
Basis function cutoff            BFCut       ... 1.0000e-11
Integration weight cutoff        WCut        ... 1.0000e-14
Partially contracted basis set               ... off
Rotationally invariant grid construction     ... off
Angular grids for H and He will be reduced by one unit
Diffuse basis detected: some atoms will have their outermost
                        angular grid increased by 1.

Total number of grid points                  ...   552834
Total number of batches                      ...     8665
Average number of points per batch           ...       63
Average number of grid points per atom       ...    10840
Initializing property integral containers    ... done (  0.1 sec)

SHARK setup successfully completed in   8.0 seconds

Maximum memory used throughout the entire STARTUP-calculation: 123.7 MB


           ************************************************************
           *        Program running with 16 parallel MPI-processes    *
           *              working on a common directory               *
           ************************************************************
-------------------------------------------------------------------------------
                                 ORCA GUESS
                   Start orbitals & Density for SCF / CASSCF
-------------------------------------------------------------------------------

------------
SCF SETTINGS
------------
Hamiltonian:
 Density Functional     Method          .... DFT(GTOs)
 Exchange Functional    Exchange        .... B973C
 Correlation Functional Correlation     .... B973C
 Gradients option       PostSCFGGA      .... off
 RI-approximation to the Coulomb term is turned on
   Number of AuxJ basis functions       .... 810


General Settings:
 Integral files         IntName         .... m1_00_Vitamin_A-B97-3C-TZ
 Hartree-Fock type      HFTyp           .... RHF
 Total Charge           Charge          ....    0
 Multiplicity           Mult            ....    1
 Number of Electrons    NEL             ....  158
 Basis Dimension        Dim             ....  494
 Nuclear Repulsion      ENuc            ....   1555.9992914918 Eh

Convergence Acceleration:
 AO-DIIS                CNVDIIS         .... on
   Start iteration      DIISMaxIt       ....    12
   Startup error        DIISStart       ....  0.200000
   # of expansion vecs  DIISMaxEq       ....     5
   Bias factor          DIISBfac        ....   1.050
   Max. coefficient     DIISMaxC        ....  10.000
 MO-DIIS                CNVKDIIS        .... off
 Trust-Rad. Augm. Hess. CNVTRAH         .... off
 SOSCF                  CNVSOSCF        .... on
   Start iteration      SOSCFMaxIt      ....   150
   Startup grad/error   SOSCFStart      ....  0.003300
   Hessian update       SOSCFHessUp     .... L-BFGS
 Level Shifting         CNVShift        .... on
   Level shift para.    LevelShift      ....    0.2500
   Turn off err/grad.   ShiftErr        ....    0.0010
 Zerner damping         CNVZerner       .... off
 Static damping         CNVDamp         .... on
   Fraction old density DampFac         ....    0.7000
   Max. Damping (<1)    DampMax         ....    0.9800
   Min. Damping (>=0)   DampMin         ....    0.0000
   Turn off err/grad.   DampErr         ....    0.1000

SCF Procedure:
 Maximum # iterations   MaxIter         ....   800
 SCF integral mode      SCFMode         .... Direct
   Integral package                     .... SHARK and LIBINT hybrid scheme
 Reset frequency        DirectResetFreq ....    20
 Integral Threshold     Thresh          ....  2.500e-11 Eh
 Primitive CutOff       TCut            ....  2.500e-12 Eh

Convergence Tolerance:
 Convergence Check Mode ConvCheckMode   .... Total+1el-Energy
 Convergence forced     ConvForced      .... 0
 Energy Change          TolE            ....  1.000e-08 Eh
 1-El. energy change                    ....  1.000e-05 Eh
 Orbital Gradient       TolG            ....  1.000e-05
 Orbital Rotation angle TolX            ....  1.000e-05
 DIIS Error             TolErr          ....  5.000e-07

--------------------------------
INITIAL GUESS: MINIMAL BASIS EHT
--------------------------------
The minimal basis has 135 functions
EHT matrix was diagonalized
Basis set overlap was calculated now projecting the orbitals
Using GuessMode=FMatrix for the initial guess
C*T matrix was formed
Effective Fockian was calculated
Effective Fockian was diagonalized
Initial density was built
                      ------------------
                      INITIAL GUESS DONE
                      ------------------
             **** ENERGY FILE WAS UPDATED (m1_00_Vitamin_A-B97-3C-TZ.en.tmp) ****
Finished Guess after   1.1 sec
Maximum memory used throughout the entire GUESS-calculation: 41.4 MB


           ************************************************************
           *        Program running with 16 parallel MPI-processes    *
           *              working on a common directory               *
           ************************************************************

-------------------------------------------------------------------------------------------
                                      ORCA LEAN-SCF
                              memory conserving SCF solver
-------------------------------------------------------------------------------------------

----------------------------------------D-I-I-S--------------------------------------------
Iteration    Energy (Eh)           Delta-E    RMSDP     MaxDP     DIISErr   Damp  Time(sec)
-------------------------------------------------------------------------------------------
               ***  Starting incremental Fock matrix formation  ***
    1    -852.7220680210298269     0.00e+00  3.92e-03  1.29e-01  4.62e-01  0.700   2.6
Warning: op=0 Small HOMO/LUMO gap (   0.078) - skipping pre-diagonalization
         Will do a full diagonalization
    2    -853.3300431374796062    -6.08e-01  3.72e-03  2.55e-01  3.26e-01  0.700   0.8
    3    -853.7377114255909873    -4.08e-01  2.34e-03  1.21e-01  2.28e-01  0.700   0.7
                               ***Turning on AO-DIIS***
    4    -854.0212599452106588    -2.84e-01  1.62e-03  5.10e-02  1.59e-01  0.700   0.8
    5    -854.2162067377339554    -1.95e-01  1.15e-03  4.18e-02  1.11e-01  0.700   0.7
    6    -854.3565828391870127    -1.40e-01  8.70e-04  5.73e-02  7.75e-02  0.700   0.7
    7    -854.4558742766566866    -9.93e-02  2.06e-03  1.40e-01  5.43e-02  0.000   0.7
    8    -854.6856601262597906    -2.30e-01  3.88e-04  4.24e-02  2.29e-02  0.000   0.7
    9    -854.6861570296837272    -4.97e-04  6.14e-05  4.36e-03  1.48e-02  0.000   0.7
                              *** Initializing SOSCF ***
---------------------------------------S-O-S-C-F--------------------------------------
Iteration    Energy (Eh)           Delta-E    RMSDP     MaxDP     MaxGrad    Time(sec)
--------------------------------------------------------------------------------------
   10    -854.6863968017619300    -2.40e-04  3.91e-05  4.43e-03  2.52e-03     0.8
               *** Restarting incremental Fock matrix formation ***
   11    -854.6864119344418214    -1.51e-05  4.83e-05  4.68e-03  1.38e-04     0.8
   12    -854.6864084972421551     3.44e-06  2.70e-05  2.65e-03  3.04e-04     0.7
   13    -854.6864131860402267    -4.69e-06  4.86e-06  2.67e-04  1.89e-05     0.6
   14    -854.6864131505608384     3.55e-08  2.08e-06  1.22e-04  4.51e-05     0.6
   15    -854.6864131972670293    -4.67e-08  2.99e-06  1.84e-04  3.55e-06     0.7
   16    -854.6864131881015965     9.17e-09  1.50e-06  1.28e-04  6.67e-06     0.7
                 **** Energy Check signals convergence ****

               *****************************************************
               *                     SUCCESS                       *
               *           SCF CONVERGED AFTER  16 CYCLES          *
               *****************************************************

             **** ENERGY FILE WAS UPDATED (m1_00_Vitamin_A-B97-3C-TZ.en.tmp) ****

----------------
TOTAL SCF ENERGY
----------------

Total Energy       :       -854.68641318810160 Eh          -23257.19968 eV

Components:
Nuclear Repulsion  :       1555.99929149182117 Eh           42340.89329 eV
Electronic Energy  :      -2410.68570467992276 Eh          -65598.09297 eV
One Electron Energy:      -4246.34365894551047 Eh         -115548.88535 eV
Two Electron Energy:       1835.65795426558770 Eh           49950.79238 eV

Virial components:
Potential Energy   :      -1705.72468747295579 Eh          -46415.12845 eV
Kinetic Energy     :        851.03827428485431 Eh           23157.92877 eV
Virial Ratio       :          2.00428669193088

DFT components:
N(Alpha)           :       78.999998837112 electrons
N(Beta)            :       78.999998837112 electrons
N(Total)           :      157.999997674225 electrons
E(XC)              :     -127.608307288297 Eh       

---------------
SCF CONVERGENCE
---------------

  Last Energy change         ...   -9.1654e-09  Tolerance :   1.0000e-08
  Last MAX-Density change    ...    1.2843e-04  Tolerance :   1.0000e-07
  Last RMS-Density change    ...    1.4980e-06  Tolerance :   5.0000e-09
  Last DIIS Error            ...    2.5210e-03  Tolerance :   5.0000e-07
  Last Orbital Gradient      ...    6.6673e-06  Tolerance :   1.0000e-05
  Last Orbital Rotation      ...    1.5301e-05  Tolerance :   1.0000e-05


----------------
ORBITAL ENERGIES
----------------

  NO   OCC          E(Eh)            E(eV) 
   0   2.0000     -18.741607      -509.9850 
   1   2.0000      -9.938560      -270.4420 
   2   2.0000      -9.907998      -269.6103 
   3   2.0000      -9.906639      -269.5733 
   4   2.0000      -9.903097      -269.4770 
   5   2.0000      -9.894457      -269.2419 
   6   2.0000      -9.893967      -269.2285 
   7   2.0000      -9.893345      -269.2116 
   8   2.0000      -9.893012      -269.2026 
   9   2.0000      -9.891830      -269.1704 
  10   2.0000      -9.890792      -269.1421 
  11   2.0000      -9.889712      -269.1127 
  12   2.0000      -9.888914      -269.0910 
  13   2.0000      -9.887184      -269.0439 
  14   2.0000      -9.886479      -269.0248 
  15   2.0000      -9.884803      -268.9792 
  16   2.0000      -9.881151      -268.8798 
  17   2.0000      -9.880828      -268.8710 
  18   2.0000      -9.880727      -268.8683 
  19   2.0000      -9.879134      -268.8249 
  20   2.0000      -9.875629      -268.7295 
  21   2.0000      -0.938717       -25.5438 
  22   2.0000      -0.778120       -21.1737 
  23   2.0000      -0.763119       -20.7655 
  24   2.0000      -0.748339       -20.3633 
  25   2.0000      -0.716805       -19.5053 
  26   2.0000      -0.712671       -19.3928 
  27   2.0000      -0.692008       -18.8305 
  28   2.0000      -0.662003       -18.0140 
  29   2.0000      -0.652897       -17.7662 
  30   2.0000      -0.629520       -17.1301 
  31   2.0000      -0.619799       -16.8656 
  32   2.0000      -0.617518       -16.8035 
  33   2.0000      -0.608868       -16.5682 
  34   2.0000      -0.600167       -16.3314 
  35   2.0000      -0.557322       -15.1655 
  36   2.0000      -0.530171       -14.4267 
  37   2.0000      -0.513610       -13.9760 
  38   2.0000      -0.497421       -13.5355 
  39   2.0000      -0.484936       -13.1958 
  40   2.0000      -0.470982       -12.8161 
  41   2.0000      -0.462909       -12.5964 
  42   2.0000      -0.446911       -12.1611 
  43   2.0000      -0.431406       -11.7391 
  44   2.0000      -0.423304       -11.5187 
  45   2.0000      -0.414044       -11.2667 
  46   2.0000      -0.403902       -10.9907 
  47   2.0000      -0.401241       -10.9183 
  48   2.0000      -0.394662       -10.7393 
  49   2.0000      -0.389434       -10.5970 
  50   2.0000      -0.381713       -10.3870 
  51   2.0000      -0.378687       -10.3046 
  52   2.0000      -0.376824       -10.2539 
  53   2.0000      -0.375839       -10.2271 
  54   2.0000      -0.374617       -10.1939 
  55   2.0000      -0.356909        -9.7120 
  56   2.0000      -0.353819        -9.6279 
  57   2.0000      -0.350101        -9.5267 
  58   2.0000      -0.349389        -9.5074 
  59   2.0000      -0.340349        -9.2614 
  60   2.0000      -0.335420        -9.1273 
  61   2.0000      -0.327255        -8.9051 
  62   2.0000      -0.325121        -8.8470 
  63   2.0000      -0.323389        -8.7999 
  64   2.0000      -0.311718        -8.4823 
  65   2.0000      -0.308531        -8.3955 
  66   2.0000      -0.304188        -8.2774 
  67   2.0000      -0.298770        -8.1299 
  68   2.0000      -0.296433        -8.0663 
  69   2.0000      -0.293750        -7.9933 
  70   2.0000      -0.286480        -7.7955 
  71   2.0000      -0.279194        -7.5973 
  72   2.0000      -0.272785        -7.4229 
  73   2.0000      -0.262272        -7.1368 
  74   2.0000      -0.254269        -6.9190 
  75   2.0000      -0.239710        -6.5228 
  76   2.0000      -0.225636        -6.1399 
  77   2.0000      -0.201579        -5.4852 
  78   2.0000      -0.167413        -4.5555 
  79   0.0000      -0.081062        -2.2058 
  80   0.0000      -0.029621        -0.8060 
  81   0.0000       0.006434         0.1751 
  82   0.0000       0.017902         0.4871 
  83   0.0000       0.021004         0.5716 
  84   0.0000       0.029879         0.8131 
  85   0.0000       0.034853         0.9484 
  86   0.0000       0.041515         1.1297 
  87   0.0000       0.043504         1.1838 
  88   0.0000       0.047940         1.3045 
  89   0.0000       0.052881         1.4390 
*Only the first 10 virtual orbitals were printed.

                    ********************************
                    * MULLIKEN POPULATION ANALYSIS *
                    ********************************

-----------------------
MULLIKEN ATOMIC CHARGES
-----------------------
   0 O :   -0.551245
   1 C :    0.105639
   2 C :   -0.337793
   3 C :   -0.356388
   4 C :    0.262249
   5 C :   -0.328406
   6 C :    0.011686
   7 C :   -0.540074
   8 C :   -0.572216
   9 C :   -0.362443
  10 C :   -0.623250
  11 C :   -0.297720
  12 C :    0.260381
  13 C :   -0.585197
  14 C :   -0.226541
  15 C :   -0.097875
  16 C :   -0.297217
  17 C :    0.195900
  18 C :   -0.580164
  19 C :   -0.176008
  20 C :   -0.268037
  21 H :    0.174840
  22 H :    0.167965
  23 H :    0.165483
  24 H :    0.171594
  25 H :    0.175079
  26 H :    0.165429
  27 H :    0.177484
  28 H :    0.166807
  29 H :    0.175921
  30 H :    0.168198
  31 H :    0.175983
  32 H :    0.172972
  33 H :    0.192031
  34 H :    0.167392
  35 H :    0.212990
  36 H :    0.180990
  37 H :    0.155926
  38 H :    0.175161
  39 H :    0.178120
  40 H :    0.179908
  41 H :    0.133143
  42 H :    0.156052
  43 H :    0.134037
  44 H :    0.177972
  45 H :    0.168341
  46 H :    0.181021
  47 H :    0.166392
  48 H :    0.161921
  49 H :    0.167323
  50 H :    0.418245
Sum of atomic charges:    0.0000000

--------------------------------
MULLIKEN REDUCED ORBITAL CHARGES
--------------------------------
  0 O s       :     3.813761  s :     3.813761
      pz      :     1.236366  p :     4.708762
      px      :     1.811295
      py      :     1.661102
      dz2     :    -0.000175  d :     0.028722
      dxz     :     0.006351
      dyz     :     0.012036
      dx2y2   :     0.003467
      dxy     :     0.007044

  1 C s       :     2.924347  s :     2.924347
      pz      :     0.961929  p :     2.915545
      px      :     0.998790
      py      :     0.954826
      dz2     :     0.013020  d :     0.054468
      dxz     :     0.009613
      dyz     :     0.009732
      dx2y2   :     0.009958
      dxy     :     0.012145

  2 C s       :     3.190767  s :     3.190767
      pz      :     1.122778  p :     3.102371
      px      :     1.000580
      py      :     0.979012
      dz2     :     0.008803  d :     0.044655
      dxz     :     0.010554
      dyz     :     0.005766
      dx2y2   :     0.009666
      dxy     :     0.009866

  3 C s       :     3.213776  s :     3.213776
      pz      :     1.031366  p :     3.097733
      px      :     1.098348
      py      :     0.968019
      dz2     :     0.012387  d :     0.044880
      dxz     :     0.006961
      dyz     :     0.006277
      dx2y2   :     0.009335
      dxy     :     0.009920

  4 C s       :     3.155034  s :     3.155034
      pz      :     0.914525  p :     2.535129
      px      :     0.872058
      py      :     0.748547
      dz2     :     0.005258  d :     0.047588
      dxz     :     0.006521
      dyz     :     0.007990
      dx2y2   :     0.013051
      dxy     :     0.014768

  5 C s       :     3.146666  s :     3.146666
      pz      :     1.084845  p :     3.135964
      px      :     0.979061
      py      :     1.072058
      dz2     :     0.009252  d :     0.045776
      dxz     :     0.011678
      dyz     :     0.006211
      dx2y2   :     0.009698
      dxy     :     0.008938

  6 C s       :     3.200181  s :     3.200181
      pz      :     0.920345  p :     2.742161
      px      :     0.936505
      py      :     0.885312
      dz2     :     0.004744  d :     0.045972
      dxz     :     0.005883
      dyz     :     0.009414
      dx2y2   :     0.012043
      dxy     :     0.013888

  7 C s       :     3.259431  s :     3.259431
      pz      :     1.102842  p :     3.243275
      px      :     1.139164
      py      :     1.001268
      dz2     :     0.012198  d :     0.037368
      dxz     :     0.003356
      dyz     :     0.004756
      dx2y2   :     0.005063
      dxy     :     0.011996

  8 C s       :     3.274005  s :     3.274005
      pz      :     0.988317  p :     3.260947
      px      :     1.129123
      py      :     1.143507
      dz2     :     0.008049  d :     0.037265
      dxz     :     0.007243
      dyz     :     0.008529
      dx2y2   :     0.004536
      dxy     :     0.008908

  9 C s       :     3.276875  s :     3.276875
      pz      :     1.013059  p :     3.043626
      px      :     1.054494
      py      :     0.976073
      dz2     :     0.003191  d :     0.041942
      dxz     :     0.007824
      dyz     :     0.003769
      dx2y2   :     0.015504
      dxy     :     0.011654

 10 C s       :     3.326539  s :     3.326539
      pz      :     1.094465  p :     3.258594
      px      :     1.055394
      py      :     1.108736
      dz2     :     0.002039  d :     0.038117
      dxz     :     0.010851
      dyz     :     0.011953
      dx2y2   :     0.002456
      dxy     :     0.010817

 11 C s       :     3.317407  s :     3.317407
      pz      :     0.960426  p :     2.938295
      px      :     1.054680
      py      :     0.923190
      dz2     :     0.003115  d :     0.042017
      dxz     :     0.008380
      dyz     :     0.003973
      dx2y2   :     0.015234
      dxy     :     0.011317

 12 C s       :     3.185103  s :     3.185103
      pz      :     0.928893  p :     2.506187
      px      :     0.945756
      py      :     0.631538
      dz2     :     0.003871  d :     0.048329
      dxz     :     0.008065
      dyz     :     0.005905
      dx2y2   :     0.014763
      dxy     :     0.015725

 13 C s       :     3.280545  s :     3.280545
      pz      :     1.106730  p :     3.267139
      px      :     1.174591
      py      :     0.985818
      dz2     :     0.007385  d :     0.037513
      dxz     :     0.006687
      dyz     :     0.007612
      dx2y2   :     0.007977
      dxy     :     0.007851

 14 C s       :     3.265043  s :     3.265043
      pz      :     1.013567  p :     2.919817
      px      :     1.068200
      py      :     0.838050
      dz2     :     0.003463  d :     0.041681
      dxz     :     0.008046
      dyz     :     0.003075
      dx2y2   :     0.016229
      dxy     :     0.010868

 15 C s       :     3.077553  s :     3.077553
      pz      :     0.990134  p :     2.978791
      px      :     1.070431
      py      :     0.918227
      dz2     :     0.003436  d :     0.041531
      dxz     :     0.007772
      dyz     :     0.003501
      dx2y2   :     0.015431
      dxy     :     0.011391

 16 C s       :     3.323356  s :     3.323356
      pz      :     0.997911  p :     2.932426
      px      :     1.018686
      py      :     0.915829
      dz2     :     0.003520  d :     0.041435
      dxz     :     0.007519
      dyz     :     0.003408
      dx2y2   :     0.015717
      dxy     :     0.011271

 17 C s       :     3.160947  s :     3.160947
      pz      :     0.934649  p :     2.594211
      px      :     0.942098
      py      :     0.717464
      dz2     :     0.004124  d :     0.048943
      dxz     :     0.007368
      dyz     :     0.006711
      dx2y2   :     0.016364
      dxy     :     0.014377

 18 C s       :     3.291249  s :     3.291249
      pz      :     1.102914  p :     3.251376
      px      :     1.156475
      py      :     0.991988
      dz2     :     0.008013  d :     0.037538
      dxz     :     0.004330
      dyz     :     0.009104
      dx2y2   :     0.010498
      dxy     :     0.005593

 19 C s       :     3.142635  s :     3.142635
      pz      :     1.011282  p :     2.994234
      px      :     0.999097
      py      :     0.983855
      dz2     :     0.003610  d :     0.039139
      dxz     :     0.005418
      dyz     :     0.003810
      dx2y2   :     0.014213
      dxy     :     0.012089

[...]
114:   1504.52   0.001852    9.36  0.000384  (-0.011599  0.010761  0.011570)
115:   1513.91   0.000904    4.57  0.000186  ( 0.007135 -0.007895  0.008549)
116:   1514.57   0.000658    3.33  0.000136  (-0.007498  0.007795  0.004318)
117:   1520.86   0.001391    7.03  0.000285  ( 0.013621  0.009610 -0.002737)
118:   1598.55   0.001857    9.39  0.000363  (-0.013642 -0.012384 -0.004810)
119:   1607.52   0.004287   21.66  0.000832  ( 0.028075  0.000350  0.006626)
120:   1642.46   0.001659    8.38  0.000315  ( 0.011486 -0.013480 -0.001225)
121:   1652.35   0.000501    2.53  0.000095  ( 0.007298  0.002804  0.005780)
122:   1659.49   0.003331   16.83  0.000626  (-0.024711  0.003480  0.001892)
123:   2941.00   0.011256   56.88  0.001194  ( 0.021078 -0.018611  0.020093)
124:   2973.91   0.007679   38.81  0.000806  (-0.010774  0.021535 -0.015032)
125:   2974.81   0.008174   41.31  0.000857  ( 0.024882  0.012483  0.009081)
126:   2979.17   0.007652   38.67  0.000802  (-0.000959 -0.026852  0.008918)
127:   2983.68   0.015267   77.15  0.001597  (-0.031389  0.008374  0.023268)
128:   2991.31   0.004604   23.27  0.000480  ( 0.003046 -0.001743  0.021634)
129:   2996.96   0.017941   90.67  0.001868  (-0.010732 -0.041182 -0.007554)
130:   2997.12   0.004100   20.72  0.000427  ( 0.017479  0.010184  0.004202)
131:   2998.55   0.008206   41.47  0.000854  ( 0.020771 -0.012813 -0.016074)
132:   3002.50   0.005291   26.74  0.000550  ( 0.005521 -0.020030 -0.010871)
133:   3014.90   0.007820   39.52  0.000809  (-0.019038  0.002238 -0.021022)
134:   3019.92   0.006193   31.30  0.000640  ( 0.010176  0.022585 -0.005129)
135:   3020.77   0.016492   83.34  0.001704  ( 0.032941 -0.000183 -0.024870)
136:   3034.94   0.013238   66.90  0.001361  (-0.026744  0.008372 -0.023997)
137:   3042.80   0.003520   17.79  0.000361  (-0.000665  0.004926 -0.018338)
138:   3050.37   0.003524   17.81  0.000360  (-0.001715 -0.007350  0.017422)
139:   3060.01   0.002492   12.59  0.000254  ( 0.005609 -0.000754 -0.014902)
140:   3064.98   0.019510   98.60  0.001986  (-0.038599 -0.017255  0.014100)
141:   3073.82   0.004765   24.08  0.000484  ( 0.012066  0.004324  0.017875)
142:   3076.07   0.001197    6.05  0.000121  ( 0.004685 -0.009363 -0.003444)
143:   3076.99   0.010062   50.85  0.001020  (-0.024449  0.020552 -0.000583)
144:   3082.49   0.000068    0.34  0.000007  ( 0.002536 -0.000298 -0.000610)
145:   3089.85   0.007537   38.09  0.000761  (-0.004675  0.025972  0.008054)
146:   3100.40   0.004986   25.20  0.000502  ( 0.014197 -0.014907 -0.008836)
147:   3105.32   0.000294    1.49  0.000030  ( 0.004387 -0.000734 -0.003125)
148:   3108.69   0.001730    8.74  0.000174  (-0.011957  0.005475  0.000864)
149:   3111.50   0.008752   44.23  0.000878  (-0.028387  0.008320  0.001644)
150:   3121.31   0.005997   30.31  0.000600  ( 0.009689 -0.022217 -0.003479)
151:   3131.11   0.007997   40.41  0.000797  (-0.018927  0.019971  0.006322)
152:   3728.87   0.001882    9.51  0.000158  ( 0.000770 -0.003230  0.012103)

* The epsilon (eps) is given for a Dirac delta lineshape.
** The dipole moment derivative (T) already includes vibrational overlap.

The first frequency considered to be a vibration is 6
The total number of vibrations considered is 147


--------------------------
THERMOCHEMISTRY AT 298.15K
--------------------------

Temperature         ...   298.15 K
Pressure            ...     1.00 atm
Total Mass          ...   286.46 AMU
Quasi RRHO          ...     True
Cut-Off Frequency   ...     1.00 cm^-1

Throughout the following assumptions are being made:
  (1) The electronic state is orbitally nondegenerate
  (2) There are no thermally accessible electronically excited states
  (3) Hindered rotations indicated by low frequency modes are not
      treated as such but are treated as vibrations and this may
      cause some error
  (4) All equations used are the standard statistical mechanics
      equations for an ideal gas
  (5) All vibrations are strictly harmonic

freq.      17.16  E(vib)   ...       0.57 
freq.      28.09  E(vib)   ...       0.55 
freq.      33.35  E(vib)   ...       0.55 
freq.      44.28  E(vib)   ...       0.53 
freq.      51.47  E(vib)   ...       0.52 
freq.      67.91  E(vib)   ...       0.50 
freq.      81.60  E(vib)   ...       0.48 
freq.     103.55  E(vib)   ...       0.46 
freq.     107.70  E(vib)   ...       0.45 
freq.     135.66  E(vib)   ...       0.42 
freq.     154.53  E(vib)   ...       0.40 
freq.     170.51  E(vib)   ...       0.38 
freq.     176.20  E(vib)   ...       0.38 
freq.     184.14  E(vib)   ...       0.37 
freq.     196.16  E(vib)   ...       0.36 
freq.     225.96  E(vib)   ...       0.33 
freq.     237.24  E(vib)   ...       0.32 
freq.     250.53  E(vib)   ...       0.30 
freq.     262.08  E(vib)   ...       0.29 
freq.     266.71  E(vib)   ...       0.29 
freq.     281.71  E(vib)   ...       0.28 
freq.     291.28  E(vib)   ...       0.27 
freq.     312.19  E(vib)   ...       0.25 
freq.     319.61  E(vib)   ...       0.25 
freq.     343.31  E(vib)   ...       0.23 
freq.     350.09  E(vib)   ...       0.23 
freq.     360.31  E(vib)   ...       0.22 
freq.     372.14  E(vib)   ...       0.21 
freq.     378.47  E(vib)   ...       0.21 
freq.     403.84  E(vib)   ...       0.19 
freq.     422.26  E(vib)   ...       0.18 
freq.     431.24  E(vib)   ...       0.18 
freq.     477.86  E(vib)   ...       0.15 
freq.     484.19  E(vib)   ...       0.15 
freq.     492.38  E(vib)   ...       0.14 
freq.     521.39  E(vib)   ...       0.13 
freq.     526.37  E(vib)   ...       0.13 
freq.     537.39  E(vib)   ...       0.12 
freq.     580.62  E(vib)   ...       0.11 
freq.     605.46  E(vib)   ...       0.10 
freq.     613.59  E(vib)   ...       0.10 
freq.     664.90  E(vib)   ...       0.08 
freq.     733.41  E(vib)   ...       0.06 
freq.     797.36  E(vib)   ...       0.05 
freq.     802.97  E(vib)   ...       0.05 
freq.     838.52  E(vib)   ...       0.04 
freq.     848.03  E(vib)   ...       0.04 
freq.     856.02  E(vib)   ...       0.04 
freq.     868.43  E(vib)   ...       0.04 
freq.     890.46  E(vib)   ...       0.04 
freq.     892.15  E(vib)   ...       0.03 
freq.     898.61  E(vib)   ...       0.03 
freq.     913.21  E(vib)   ...       0.03 
freq.     938.49  E(vib)   ...       0.03 
freq.     950.93  E(vib)   ...       0.03 
freq.     951.90  E(vib)   ...       0.03 
freq.     967.59  E(vib)   ...       0.03 
freq.     978.86  E(vib)   ...       0.03 
freq.     990.76  E(vib)   ...       0.02 
freq.     991.25  E(vib)   ...       0.02 
freq.    1000.95  E(vib)   ...       0.02 
freq.    1022.61  E(vib)   ...       0.02 
freq.    1026.24  E(vib)   ...       0.02 
freq.    1038.75  E(vib)   ...       0.02 
freq.    1048.78  E(vib)   ...       0.02 
freq.    1049.19  E(vib)   ...       0.02 
freq.    1053.19  E(vib)   ...       0.02 
freq.    1063.47  E(vib)   ...       0.02 
freq.    1077.60  E(vib)   ...       0.02 
freq.    1098.60  E(vib)   ...       0.02 
freq.    1143.58  E(vib)   ...       0.01 
freq.    1155.55  E(vib)   ...       0.01 
freq.    1187.57  E(vib)   ...       0.01 
freq.    1192.56  E(vib)   ...       0.01 
freq.    1201.40  E(vib)   ...       0.01 
freq.    1203.50  E(vib)   ...       0.01 
freq.    1223.95  E(vib)   ...       0.01 
freq.    1230.28  E(vib)   ...       0.01 
freq.    1233.63  E(vib)   ...       0.01 
freq.    1264.61  E(vib)   ...       0.01 
freq.    1282.32  E(vib)   ...       0.01 
freq.    1300.04  E(vib)   ...       0.01 
freq.    1310.69  E(vib)   ...       0.01 
freq.    1332.31  E(vib)   ...       0.01 
freq.    1338.84  E(vib)   ...       0.01 
freq.    1343.08  E(vib)   ...       0.01 
freq.    1348.70  E(vib)   ...       0.01 
freq.    1364.60  E(vib)   ...       0.01 
freq.    1377.28  E(vib)   ...       0.01 
freq.    1382.64  E(vib)   ...       0.01 
freq.    1384.16  E(vib)   ...       0.00 
freq.    1392.18  E(vib)   ...       0.00 
freq.    1397.11  E(vib)   ...       0.00 
freq.    1408.59  E(vib)   ...       0.00 
freq.    1410.36  E(vib)   ...       0.00 
freq.    1415.90  E(vib)   ...       0.00 
freq.    1419.65  E(vib)   ...       0.00 
freq.    1427.46  E(vib)   ...       0.00 
freq.    1472.46  E(vib)   ...       0.00 
freq.    1484.47  E(vib)   ...       0.00 
freq.    1491.12  E(vib)   ...       0.00 
freq.    1491.61  E(vib)   ...       0.00 
freq.    1492.21  E(vib)   ...       0.00 
freq.    1493.90  E(vib)   ...       0.00 
freq.    1496.32  E(vib)   ...       0.00 
freq.    1496.58  E(vib)   ...       0.00 
freq.    1499.37  E(vib)   ...       0.00 
freq.    1501.59  E(vib)   ...       0.00 
freq.    1504.52  E(vib)   ...       0.00 
freq.    1513.91  E(vib)   ...       0.00 
freq.    1514.57  E(vib)   ...       0.00 
freq.    1520.86  E(vib)   ...       0.00 
freq.    1598.55  E(vib)   ...       0.00 
freq.    1607.52  E(vib)   ...       0.00 
freq.    1642.46  E(vib)   ...       0.00 
freq.    1652.35  E(vib)   ...       0.00 
freq.    1659.49  E(vib)   ...       0.00 
freq.    2941.00  E(vib)   ...       0.00 
freq.    2973.91  E(vib)   ...       0.00 
freq.    2974.81  E(vib)   ...       0.00 
freq.    2979.17  E(vib)   ...       0.00 
freq.    2983.68  E(vib)   ...       0.00 
freq.    2991.31  E(vib)   ...       0.00 
freq.    2996.96  E(vib)   ...       0.00 
freq.    2997.12  E(vib)   ...       0.00 
freq.    2998.55  E(vib)   ...       0.00 
freq.    3002.50  E(vib)   ...       0.00 
freq.    3014.90  E(vib)   ...       0.00 
freq.    3019.92  E(vib)   ...       0.00 
freq.    3020.77  E(vib)   ...       0.00 
freq.    3034.94  E(vib)   ...       0.00 
freq.    3042.80  E(vib)   ...       0.00 
freq.    3050.37  E(vib)   ...       0.00 
freq.    3060.01  E(vib)   ...       0.00 
freq.    3064.98  E(vib)   ...       0.00 
freq.    3073.82  E(vib)   ...       0.00 
freq.    3076.07  E(vib)   ...       0.00 
freq.    3076.99  E(vib)   ...       0.00 
freq.    3082.49  E(vib)   ...       0.00 
freq.    3089.85  E(vib)   ...       0.00 
freq.    3100.40  E(vib)   ...       0.00 
freq.    3105.32  E(vib)   ...       0.00 
freq.    3108.69  E(vib)   ...       0.00 
freq.    3111.50  E(vib)   ...       0.00 
freq.    3121.31  E(vib)   ...       0.00 
freq.    3131.11  E(vib)   ...       0.00 
freq.    3728.87  E(vib)   ...       0.00 

------------
INNER ENERGY
------------

The inner energy is: U= E(el) + E(ZPE) + E(vib) + E(rot) + E(trans)
    E(el)   - is the total energy from the electronic structure calculation
              = E(kin-el) + E(nuc-el) + E(el-el) + E(nuc-nuc)
    E(ZPE)  - the the zero temperature vibrational energy from the frequency calculation
    E(vib)  - the the finite temperature correction to E(ZPE) due to population
              of excited vibrational states
    E(rot)  - is the rotational thermal energy
    E(trans)- is the translational thermal energy

Summary of contributions to the inner energy U:
Electronic energy                ...   -854.95896288 Eh
Zero point energy                ...      0.44860358 Eh     281.50 kcal/mol
Thermal vibrational correction   ...      0.02142579 Eh      13.44 kcal/mol
Thermal rotational correction    ...      0.00141627 Eh       0.89 kcal/mol
Thermal translational correction ...      0.00141627 Eh       0.89 kcal/mol
-----------------------------------------------------------------------
Total thermal energy                   -854.48610096 Eh


Summary of corrections to the electronic energy:
(perhaps to be used in another calculation)
Total thermal correction                  0.02425833 Eh      15.22 kcal/mol
Non-thermal (ZPE) correction              0.44860358 Eh     281.50 kcal/mol
-----------------------------------------------------------------------
Total correction                          0.47286192 Eh     296.72 kcal/mol


--------
ENTHALPY
--------

The enthalpy is H = U + kB*T
                kB is Boltzmann's constant
Total thermal energy              ...   -854.48610096 Eh 
Thermal Enthalpy correction       ...      0.00094421 Eh       0.59 kcal/mol
-----------------------------------------------------------------------
Total Enthalpy                    ...   -854.48515676 Eh


Note: Only C1 symmetry has been detected, increase convergence thresholds 
      if your molecule has a higher symmetry. Symmetry factor of 1.0 is   
      used for the rotational entropy correction. 
 

Note: Rotational entropy computed according to Herzberg 
Infrared and Raman Spectra, Chapter V,1, Van Nostrand Reinhold, 1945 
Point Group:  C1, Symmetry Number:   1  
Rotational constants in cm-1:     0.025601     0.002625     0.002528 

Vibrational entropy computed according to the QRRHO of S. Grimme
Chem.Eur.J. 2012 18 9955 using a reference frequency of 100.0 cm-1


-------
ENTROPY
-------

The entropy contributions are T*S = T*(S(el)+S(vib)+S(rot)+S(trans))
     S(el)   - electronic entropy
     S(vib)  - vibrational entropy
     S(rot)  - rotational entropy
     S(trans)- translational entropy
The entropies will be listed as multiplied by the temperature to get
units of energy

Electronic entropy                ...      0.00000000 Eh      0.00 kcal/mol
Vibrational entropy               ...      0.03814579 Eh     23.94 kcal/mol
Rotational entropy                ...      0.01686990 Eh     10.59 kcal/mol
Translational entropy             ...      0.02036176 Eh     12.78 kcal/mol
-----------------------------------------------------------------------
Final entropy term                ...      0.07537746 Eh     47.30 kcal/mol

In case the symmetry of your molecule has not been determined correctly
or in case you have a reason to use a different symmetry number we print 
out the resulting rotational entropy values for sn=1,12:

 non-linear molecules -----------------------------------
|  sn= 1 | S(rot)=       0.01686990 Eh     10.59 kcal/mol|
|  sn= 2 | S(rot)=       0.01621544 Eh     10.18 kcal/mol|
|  sn= 3 | S(rot)=       0.01583261 Eh      9.94 kcal/mol|
|  sn= 4 | S(rot)=       0.01556099 Eh      9.76 kcal/mol|
|  sn= 5 | S(rot)=       0.01535030 Eh      9.63 kcal/mol|
|  sn= 6 | S(rot)=       0.01517816 Eh      9.52 kcal/mol|
|  sn= 7 | S(rot)=       0.01503261 Eh      9.43 kcal/mol|
|  sn= 8 | S(rot)=       0.01490653 Eh      9.35 kcal/mol|
|  sn= 9 | S(rot)=       0.01479532 Eh      9.28 kcal/mol|
|  sn=10 | S(rot)=       0.01469584 Eh      9.22 kcal/mol|
|  sn=11 | S(rot)=       0.01460585 Eh      9.17 kcal/mol|
|  sn=12 | S(rot)=       0.01452370 Eh      9.11 kcal/mol|
 linear molecules ---------------------------------------
|  Dinfh | S(rot)=       0.01097232 Eh      6.89 kcal/mol|
|  Cinfv | S(rot)=       0.01162678 Eh      7.30 kcal/mol|
 --------------------------------------------------------


-------------------
GIBBS FREE ENERGY
-------------------

The Gibbs free energy is G = H - T*S

Total enthalpy                    ...   -854.48515676 Eh 
Total entropy correction          ...     -0.07537746 Eh    -47.30 kcal/mol
-----------------------------------------------------------------------
Final Gibbs free energy         ...   -854.56053421 Eh

For completeness - the Gibbs free energy minus the electronic energy
G-E(el)                           ...      0.39842867 Eh    250.02 kcal/mol


Maximum memory used throughout the entire PROP-calculation: 135.4 MB

--------------------------------
SUGGESTED CITATIONS FOR THIS RUN
--------------------------------

Below you find a list of papers that are relevant to this ORCA run
We neither can nor want to force you to cite these papers, but we appreciate if you do
You receive ORCA, which is the product of decades of hard work by many enthusiastic individuals, for free
The only thing we kindly ask in return is that you cite our papers,
We deeply appreciate it, if you show your appreciation for ORCA by not just citing the generic ORCA reference.

Please note that relegating all ORCA citations to the supporting information does *not* help us.
SI sections are not indexed - citations you put there will not count into any citation statistics
But we need these citations in order to attract the funding resources that allow us to do what we are doing

Therefore, if you are a happy ORCA user, please consider citing a few of the papers listed below in the main body of your paper

In addition to the list printed below, the program has created the file m1_00_Vitamin_A-B97-3C-TZ.bibtex that contains the list in bibtex format
You can import this file easily into all common literature databanks and citation aid programs


List of essential papers. We consider these as the minimum necessary citations

  1. Neese,F.
     Software update: the ORCA program system, version 5.0
     WIRES Comput. Molec. Sci., 2022 12(1)e1606
     doi.org/10.1002/wcms.1606

List of papers to cite with high priority. The work reported in these papers was absolutely
necessary for this run to complete.
Our perspective: the developers of density functionals and basis sets usually get cited in chemistry papers
Good! But without the algorithms to do something with them, the functionals or basis sets would not do anything.
Hence, in our opinion, the algorithm design and method developments papers are equally worthy of getting cited

  1. Neese,F.
     An improvement of the resolution of the identity approximation for the formation of the Coulomb matrix
     J. Comp. Chem., 2003 24(14)1740-1747
     doi.org/10.1002/jcc.10318
  2. Bykov,D.; Petrenko,T.; Izsak,R.; Kossmann,S.; Becker,U.; Valeev,E.; Neese,F.
     Efficient implementation of the analytic second derivatives of Hartree-Fock and hybrid DFT energies: a detailed analysis of different approximations
     Molec. Phys., 2015 113 1961-1977
     doi.org/10.1080/00268976.2015.1025114
  3. Neese,F.
     The SHARK Integral Generation and Digestion System
     J. Comp. Chem., 2022  1-16
     doi.org/10.1002/jcc.26942
  4. Grimme,S.; Antony,J.; Ehrlich,S.; Krieg,H.
     A consistent and accurate ab initio parametrization of density functional dispersion correction (DFT-D) for the 94 elements H-Pu
     J. Chem. Phys., 2010 132 154104
     doi.org/10.1063/1.3382344
  5. Grimme,S.; Ehrlich,S.; Goerigk,L.
     Effect of the damping function in dispersion corrected density functional theory
     J. Comput. Chem., 2011 32(7)1456-1465
     doi.org/10.1002/jcc.21759

List of suggested additional citations. These are papers that are important in the 'surrounding' of 
of this run, or papers that preceded the highly important papers. If you like your results we are grateful for a citation.

  1. Neese,F.
     The ORCA program system
     WIRES Comput. Molec. Sci., 2012 2(1)73-78
     doi.org/10.1002/wcms.81
  2. Neese,F.
     Software update: the ORCA program system, version 4.0
     WIRES Comput. Molec. Sci., 2018 8(1)1-6
     doi.org/10.1002/wcms.1327
  3. Neese,F.; Wennmohs,F.; Becker,U.; Riplinger,C.
     The ORCA quantum chemistry program package
     J. Chem. Phys., 2020 152 Art. No. L224108
     doi.org/10.1063/5.0004608

List of optional additional citations

  1. Neese,F.
     Approximate second-order SCF convergence for spin unrestricted wavefunctions
     Chem. Phys. Lett., 2000 325(1-3)93-98
     doi.org/10.1016/s0009-2614(00)00662-x

Timings for individual modules:

Sum of individual times          ...      597.661 sec (=   9.961 min)
Startup calculation              ...       69.309 sec (=   1.155 min)  11.6 %
SCF iterations                   ...      128.360 sec (=   2.139 min)  21.5 %
Property integrals               ...      121.520 sec (=   2.025 min)  20.3 %
SCF Response                     ...      154.665 sec (=   2.578 min)  25.9 %
Property calculations            ...       55.277 sec (=   0.921 min)   9.2 %
SCF Gradient evaluation          ...       67.273 sec (=   1.121 min)  11.3 %
Geometry relaxation              ...        1.257 sec (=   0.021 min)   0.2 %
                             ****ORCA TERMINATED NORMALLY****
TOTAL RUN TIME: 0 days 0 hours 10 minutes 8 seconds 463 msec
