
                                 *****************
                                 * O   R   C   A *
                                 *****************

                                            #,                                       
                                            ###                                      
                                            ####                                     
                                            #####                                    
                                            ######                                   
                                           ########,                                 
                                     ,,################,,,,,                         
                               ,,#################################,,                 
                          ,,##########################################,,             
                       ,#########################################, ''#####,          
                    ,#############################################,,   '####,        
                  ,##################################################,,,,####,       
                ,###########''''           ''''###############################       
              ,#####''   ,,,,##########,,,,          '''####'''          '####       
            ,##' ,,,,###########################,,,                        '##       
           ' ,,###''''                  '''############,,,                           
         ,,##''                                '''############,,,,        ,,,,,,###''
      ,#''                                            '''#######################'''  
     '                                                          ''''####''''         
             ,#######,   #######,   ,#######,      ##                                
            ,#'     '#,  ##    ##  ,#'     '#,    #''#        ,####,   ,####,        
            ##       ##  ##   ,#'  ##            #'  '#       #'       #'  '#        
            ##       ##  #######   ##           ,######,      #####,   #    #        
            '#,     ,#'  ##    ##  '#,     ,#' ,#      #,     #,   #   #,  ,#        
             '#######'   ##     ##  '#######'  #'      '#     '####' # '####'        



                #########################################################
                #                        -***-                          #
                #          Department of theory and spectroscopy        #
                #                                                       #
                #                      Frank Neese                      #
                #                                                       #
                #     Directorship, Architecture, Infrastructure        #
                #                    SHARK, DRIVERS                     #
                #        Core code/Algorithms in most modules           #
                #                                                       #
                #        Max Planck Institute fuer Kohlenforschung      #
                #                Kaiser Wilhelm Platz 1                 #
                #                 D-45470 Muelheim/Ruhr                 #
                #                      Germany                          #
                #                                                       #
                #                  All rights reserved                  #
                #                        -***-                          #
                #########################################################


                         Program Version 6.0.1  -  RELEASE   -


 With contributions from (in alphabetic order):
[Max-Planck-Institut fuer Kohlenforschung]                               
  Daniel Aravena         : Magnetic Suceptibility                        
  Michael Atanasov       : Ab Initio Ligand Field Theory (pilot matlab implementation)
  Alexander A. Auer      : GIAO ZORA, VPT2 properties, NMR spectrum      
  Ute Becker             : All parallelization in ORCA, NUMFREQ, NUMCALC 
  Giovanni Bistoni       : ED, misc. LED, open-shell LED, HFLD           
  Martin Brehm           : Molecular dynamics                            
  Dmytro Bykov           : pre 5.0 version of the SCF Hessian            
  Marcos Casanova-Páez   : Triplet and SCS-CIS(D). UHF-(DLPNO)-IP/EA/STEOM-CCSD. UHF-CVS-IP/STEOM-CCSD   
  Vijay G. Chilkuri      : MRCI spin determinant printing, contributions to CSF-ICE 
  Pauline Colinet        : FMM embedding                                 
  Dipayan Datta          : RHF DLPNO-CCSD density                        
  Achintya Kumar Dutta   : EOM-CC, STEOM-CC                              
  Nicolas Foglia         : Exact transition moments, OPA infrastructure, MCD improvements    
  Dmitry Ganyushin       : Spin-Orbit,Spin-Spin,Magnetic field MRCI      
  Miquel Garcia-Rates    : C-PCM and meta-GGA Hessian, CCSD/C-PCM, Gaussian charge scheme 
  Tiago L. C. Gouveia    : GS-ROHF, GS-ROCIS                             
  Yang Guo               : DLPNO-NEVPT2, F12-NEVPT2, CIM, IAO-localization        
  Andreas Hansen         : Spin unrestricted coupled pair/coupled cluster methods 
  Ingolf Harden          : AUTO-CI MPn and infrastructure                
  Benjamin Helmich-Paris : MC-RPA, TRAH-(SCF,CASSCF), AVAS, COSX integrals, SCF dyn. polar. 
  Lee Huntington         : MR-EOM, pCC                                   
  Robert Izsak           : Overlap fitted RIJCOSX, COSX-SCS-MP3, EOM     
  Riya Kayal             : Wick's Theorem for AUTO-CI, AUTO-CI UHF-CCSDT 
  Emily Kempfer          : AUTO-CI, RHF CISDT and CCSDT                  
  Christian Kollmar      : KDIIS, OOCD, Brueckner-CCSD(T), CCSD density, CASPT2, CASPT2-K, improved NEVPT2 
  Axel Koslowski         : Symmetry handling                             
  Simone Kossmann        : meta-GGA functionals, TD-DFT gradient, OOMP2, (MP2 Hessian; deprecated post 5.0) 
  Lucas Lang             : DCDCAS                                        
  Marvin Lechner         : AUTO-CI (C++ implementation), FIC-MRCC        
  Spencer Leger          : CASSCF response                               
  Dagmar Lenk            : GEPOL surface, SMD, ORCA-2-JSON               
  Dimitrios Liakos       : Extrapolation schemes; Compound Job, initial MDCI parallelization 
  Dimitrios Manganas     : Further ROCIS development; embedding schemes. LFT, Crystal Embedding 
  Dimitrios Pantazis     : SARC Basis sets                               
  Anastasios Papadopoulos: AUTO-CI, single reference methods and gradients 
  Taras Petrenko         : pre 6.0 DFT Hessian and TD-DFT gradient, (ASA, deprecated), ECA, 1-Electron XAS/XES, NRVS 
  Peter Pinski           : DLPNO-MP2, DLPNO-MP2 Gradient                 
  Christoph Reimann      : Effective Core Potentials                     
  Marius Retegan         : Local ZFS, SOC                                
  Christoph Riplinger    : Optimizer, TS searches, QM/MM, DLPNO-CCSD(T), (RO)-DLPNO pert. Triples 
  Michael Roemelt        : Original ROCIS implementation                 
  Masaaki Saitow         : Open-shell DLPNO-CCSD energy and density      
  Barbara Sandhoefer     : DKH picture change effects                    
  Kantharuban Sivalingam : CASSCF convergence/infrastructure, NEVPT2 and variants, FIC-MRCI 
  Bernardo de Souza      : ESD, SOC TD-DFT                               
  Georgi L. Stoychev     : AutoAux, RI-MP2 NMR, DLPNO-MP2 response, X2C  
  Van Anh Tran           : RI-MP2 g-tensors                              
  Willem Van den Heuvel  : Paramagnetic NMR                              
  Zikuan Wang            : NOTCH, Electric field optimization            
  Frank Wennmohs         : Technical directorship and infrastructure     
  Hang Xu                : AUTO-CI-Response properties                   
                                                                         
[FACCTs GmbH]                                                            
  Markus Bursch, Miquel Garcia-Rates, Christoph Riplinger, Bernardo de Souza, Georgi L. Stoychev 
                                                                 
  APM, Basis sets (HGBS, AHGBS, def-TZVP (Ac-Lr), def2-XVPD (La-Lu)), CI-OPT, improved COSX, DLPNO-Multilevel,           
  DOCKER, DRACO, updates on ESD, GOAT, IRC, LR-CPCM, MBIS, meta-GGA TD-DFT gradient, ML-optimized integration grids, 
  MM, NACMEs, nearIR, NEB, NEB-TS, NL-DFT gradient (VV10), 2- and 3-layer-ONIOM, interface openCOSMO-RS, QMMM,   
  Crystal-QMMM, SF, symmetry and pop. for TD-DFT, r2SCAN hybrids, SOLVATOR                                   
                                                                         
[Other institutions]                                                     
  V. Asgeirsson          : NEB                                           
  Christoph Bannwarth    : sTDA-DFT, sTD-DFT, PBEh-3c, B97-3c, D3        
  Sebastian Ehlert       : rSCAN, r2SCAN, r2SCAN-3c, D4, dhf basis sets  
  Marvin Friede          : D4 for Fr, Ra, Ac-Lr                          
  Lars Goerigk           : TD-DFT with DH, B97 family of functionals     
  Stefan Grimme          : VdW corrections, initial TS optimization, DFT functionals, gCP, sTDA/sTD-DF 
  Waldemar Hujo          : DFT-NL                                        
  H. Jonsson             : NEB                                           
  Holger Kruse           : gCP                                           
  Marcel Mueller         : wB97X-3c, vDZP basis set                      
  Hagen Neugebauer       : wr2SCAN                                       
  Tobias Risthaus        : range-separated hybrid DFT                    
  Lukas Wittmann         : regularized MP2, r2SCAN double-hybrids, wr2SCAN        
                                                                         
We gratefully acknowledge several colleagues who have allowed us to      
interface, adapt or use parts of their codes:                            
  Ed Valeev, F. Pavosevic, A. Kumar             : LibInt (2-el integral package), F12 methods 
  Garnet Chan, S. Sharma, J. Yang, R. Olivares  : DMRG                   
  Ulf Ekstrom                                   : XCFun DFT Library      
  Mihaly Kallay                                 : mrcc  (arbitrary order and MRCC methods)
  Frank Weinhold                                : gennbo (NPA and NBO analysis)           
  Simon Mueller                                 : openCOSMO-RS                            
  Christopher J. Cramer and Donald G. Truhlar   : smd solvation model                     
  S Lehtola, MJT Oliveira, MAL Marques          : LibXC Library                           
  Liviu Ungur et al                             : ANISO software                          


 Your calculation uses the libint2 library for the computation of 2-el integrals
 For citations please refer to: http://libint.valeyev.net

 Your ORCA version has been built with support for libXC version: 6.2.2
 For citations please refer to: https://libxc.gitlab.io

 This ORCA versions uses:
   CBLAS   interface :  Fast vector & matrix operations
   LAPACKE interface :  Fast linear algebra routines
   SCALAPACK package :  Parallel linear algebra routines
   Shared memory     :  Shared parallel matrices
   BLAS/LAPACK       :  OpenBLAS 0.3.27  USE64BITINT DYNAMIC_ARCH NO_AFFINITY Zen SINGLE_THREADED
        Core in use  :  Zen
   Copyright (c) 2011-2014, The OpenBLAS Project


NOTE: MaxCore=6000 MB was set to SCF,MP2,MDCI,CIPSI,MRCI and CIS
      => If you want to overwrite this, your respective input block should be placed after the MaxCore statement
Your calculation utilizes the atom-pairwise dispersion correction
with the Becke-Johnson damping scheme (D3BJ)


Your calculation employs the composite approach B97-3c by Grimme and coworkers.
For the correct reference, please check the publication list of the Grimme group:
http://www.thch.uni-bonn.de/tc/index.php?section=publikationen&subsection=grimme#2017
   

XCFun DFT library Copyright 2009-2010 Ulf Ekstrom and contributors.
See http://admol.org/xcfun for more information.
This is free software; see the source code for copying conditions.
There is ABSOLUTELY NO WARRANTY; not even for MERCHANTABILITY or FITNESS FOR A PARTICULAR PURPOSE.
For details see the documentation.
Scientific users of this library should cite U. Ekstrom, L. Visscher, R. Bast, A. J. Thorvaldsen and K. Ruud;
J.Chem.Theor.Comp. 2010, DOI: 10.1021/ct100117s
XCFun Version 0.99 

================================================================================

----- Orbital basis set information -----
Your calculation utilizes the basis: def2-mTZVP
----- AuxJ basis set information -----
Your calculation utilizes the basis: def2-mTZVP/J
================================================================================
                                        WARNINGS
                       Please study these warnings very carefully!
================================================================================


WARNING: Geometry Optimization
  ===> : Switching off AutoStart
         For restart on a previous wavefunction, please use MOREAD

================================================================================
                                       INPUT FILE
================================================================================
NAME = m1_00_Vitamin_B2-B97-3C-TZ.inp
|  1> %pal nprocs 16 end
|  2> %MaxCore 6000
|  3> # put your comments here
|  4> ! B97-3C  OPT  FREQ DEFGRID3 NOTRAH CHELPG
|  5> %scf MaxIter 800 end
|  6> %output
|  7> Print [P_Hirshfeld] 1
|  8> end
|  9> %geom
| 10> MaxIter 3000
| 11>  TolE 1e-6 #TolE 5e-6 Energy change (a.u.)
| 12>  TolRMSG 3e-5 #TolRMSG 1e-4 RMS gradient (a.u.)
| 13>  TolMaxG 1e-4 #TolMaxG 3e-3 Max. element of gradient (a.u.)
| 14>  TolRMSD 2e-3 #TolRMSD 2e-3 RMS displacement (a.u.)
| 15>  TolMaxD 4e-3 #TolMaxD 4e-3 Max. displacement (a.u.)
| 16> end
| 17> * xyz 0 1
| 18>  O      1.577100000      1.703900000      0.639500000
| 19>  O      3.772300000     -0.245800000     -1.560500000
| 20>  O      5.718000000      1.243000000     -0.244700000
| 21>  O      5.514500000      0.098400000      2.299200000
| 22>  O     -4.659100000      1.631900000      1.067100000
| 23>  O     -1.599200000      4.669700000     -0.523500000
| 24>  N     -0.394600000      0.168700000     -0.676800000
| 25>  N     -2.929300000     -0.352000000      0.476800000
| 26>  N     -1.005600000      2.473900000     -0.601300000
| 27>  N     -3.123500000      3.186500000      0.266300000
| 28>  C      1.968700000      0.594400000     -0.170100000
| 29>  C      0.920500000      0.400400000     -1.272200000
| 30>  C      3.381300000      0.848800000     -0.732800000
| 31>  C      4.443000000      1.038500000      0.367300000
| 32>  C     -0.774400000     -1.162800000     -0.398400000
| 33>  C     -1.259400000      1.216900000     -0.385200000
| 34>  C     -2.040800000     -1.396200000      0.175600000
| 35>  C      0.043900000     -2.277100000     -0.662800000
| 36>  C     -2.589400000      0.870500000      0.225800000
| 37>  C      4.540000000     -0.170900000      1.296200000
| 38>  C     -0.378500000     -3.576300000     -0.369000000
| 39>  C     -2.455500000     -2.704900000      0.466600000
| 40>  C     -1.628600000     -3.790700000      0.195800000
| 41>  C     -3.585200000      1.928500000      0.572600000
| 42>  C      0.533300000     -4.720400000     -0.671600000
| 43>  C     -2.103900000     -5.168000000      0.521000000
| 44>  C     -1.885700000      3.491200000     -0.300900000
| 45>  H      1.972000000     -0.301600000      0.458400000
| 46>  H      0.875300000      1.322100000     -1.868500000
| 47>  H      1.203100000     -0.365800000     -2.000700000
| 48>  H      3.373300000      1.745100000     -1.365400000
| 49>  H      4.223700000      1.941200000      0.949000000
| 50>  H      1.036900000     -2.160600000     -1.085800000
| 51>  H      3.602200000     -0.393500000      1.809400000
| 52>  H      4.873700000     -1.063100000      0.757700000
| 53>  H     -3.436900000     -2.863500000      0.909600000
| 54>  H      0.799500000      1.429300000      1.153900000
| 55>  H      4.664300000     -0.053400000     -1.896700000
| 56>  H      6.369100000      1.353800000      0.469300000
| 57>  H      1.477300000     -4.384600000     -1.114800000
| 58>  H      0.784000000     -5.265800000      0.244100000
| 59>  H      0.067700000     -5.405400000     -1.387600000
| 60>  H     -3.108300000     -5.158300000      0.958600000
| 61>  H     -2.152500000     -5.783200000     -0.383300000
| 62>  H     -1.439500000     -5.643500000      1.249800000
| 63>  H     -3.739500000      3.968300000      0.470900000
| 64>  H      5.211800000      0.874600000      2.800800000
| 65> *
| 66> 
| 67> 
| 68> 
| 69> 
| 70>                          ****END OF INPUT****
================================================================================

                       *****************************
                       * Geometry Optimization Run *
                       *****************************

Geometry optimization settings:
Update method            Update   .... BFGS
Choice of coordinates    CoordSys .... (2022) Redundant Internals
Initial Hessian          InHess   .... Almloef's Model
Max. no of cycles        MaxIter  .... 3000

Convergence Tolerances:
Energy Change            TolE     ....  1.0000e-06 Eh
Max. Gradient            TolMAXG  ....  1.0000e-04 Eh/bohr
RMS Gradient             TolRMSG  ....  3.0000e-05 Eh/bohr
Max. Displacement        TolMAXD  ....  4.0000e-03 bohr
RMS Displacement         TolRMSD  ....  2.0000e-03 bohr
Strict Convergence                .... False

------------------------------------------------------------------------------
                        ORCA OPTIMIZATION COORDINATE SETUP
------------------------------------------------------------------------------

The optimization will be done in redundant internal coordinates (2022)
Making redundant internal coordinates   ...  (2022 redundants) done
Evaluating the initial hessian          ...  (Almloef) done
Evaluating the coordinates              ...  done
Calculating the B-matrix                .... done
Calculating the G-matrix                .... done
Diagonalizing the G-matrix              .... done
Small eigenvalue found = 2.621e-03
Small eigenvalue found = 3.554e-03
Small eigenvalue found = 7.990e-03
Small eigenvalue found = 1.547e-02
Small eigenvalue found = 2.381e-02
The first mode is                       ....  107
The number of degrees of freedom        ....  135

    -----------------------------------------------------------------
                    Redundant Internal Coordinates


    -----------------------------------------------------------------
         Definition                    Initial Value    Approx d2E/dq
    -----------------------------------------------------------------
      1. B(C  10,O   0)                  1.4282         0.486305   
      2. B(C  11,N   6)                  1.4621         0.429416   
      3. B(C  11,C  10)                  1.5333         0.369084   
      4. B(C  12,C  10)                  1.5417         0.357879   
      5. B(C  12,O   1)                  1.4269         0.488610   
      6. B(C  13,C  12)                  1.5406         0.359322   
      7. B(C  13,O   2)                  1.4290         0.484934   
      8. B(C  14,N   6)                  1.4123         0.515544   
      9. B(C  15,N   6)                  1.3898         0.559943   
     10. B(C  15,N   8)                  1.3004         0.777591   
     11. B(C  16,C  14)                  1.4099         0.580824   
     12. B(C  16,N   7)                  1.4037         0.532037   
     13. B(C  17,C  14)                  1.4075         0.585793   
     14. B(C  18,C  15)                  1.5041         0.410917   
     15. B(C  18,N   7)                  1.2935         0.797808   
     16. B(C  19,C  13)                  1.5280         0.376271   
     17. B(C  19,O   3)                  1.4241         0.493632   
     18. B(C  20,C  17)                  1.3974         0.608093   
     19. B(C  21,C  16)                  1.4033         0.594924   
     20. B(C  22,C  21)                  1.3914         0.621539   
     21. B(C  22,C  20)                  1.3884         0.628428   
     22. B(C  23,C  18)                  1.4937         0.426807   
     23. B(C  23,N   9)                  1.3746         0.592148   
     24. B(C  23,O   4)                  1.2189         1.049119   
     25. B(C  24,C  20)                  1.4940         0.426462   
     26. B(C  25,C  22)                  1.4929         0.428191   
     27. B(C  26,N   9)                  1.3952         0.548919   
     28. B(C  26,N   8)                  1.3783         0.584170   
     29. B(C  26,O   5)                  1.2331         0.995922   
     30. B(H  27,C  10)                  1.0945         0.354250   
     31. B(H  28,C  11)                  1.0987         0.348770   
     32. B(H  29,C  11)                  1.0944         0.354370   
     33. B(H  30,C  12)                  1.0971         0.350845   
     34. B(H  31,C  13)                  1.0961         0.352180   
     35. B(H  32,C  17)                  1.0856         0.365954   
     36. B(H  33,C  19)                  1.0920         0.357506   
     37. B(H  34,C  19)                  1.0942         0.354536   
     38. B(H  35,C  21)                  1.0884         0.362263   
     39. B(H  36,O   0)                  0.9719         0.497636   
     40. B(H  37,O   2)                  2.3495         0.003156   
     41. B(H  37,O   1)                  0.9725         0.496661   
     42. B(H  38,O   3)                  2.3780         0.002842   
     43. B(H  38,O   2)                  0.9726         0.496387   
     44. B(H  39,C  24)                  1.0956         0.352777   
     45. B(H  40,C  24)                  1.0949         0.353669   
     46. B(H  41,C  24)                  1.0948         0.353760   
     47. B(H  42,C  25)                  1.0956         0.352727   
     48. B(H  43,C  25)                  1.0948         0.353803   
     49. B(H  44,C  25)                  1.0948         0.353752   
     50. B(H  45,N   9)                  1.0161         0.423066   
     51. B(H  46,O   3)                  0.9725         0.496657   
     52. A(C  10,O   0,H  36)          107.4513         0.352450   
     53. A(C  12,O   1,H  37)          107.4640         0.352615   
     54. A(C  13,O   2,H  38)          107.4093         0.352132   
     55. A(C  19,O   3,H  46)          107.5300         0.353225   
     56. A(C  14,N   6,C  15)          120.1552         0.407108   
     57. A(C  11,N   6,C  14)          118.1359         0.388562   
     58. A(C  11,N   6,C  15)          121.7089         0.394216   
     59. A(C  16,N   7,C  18)          119.6757         0.436113   
     60. A(C  15,N   8,C  26)          123.5446         0.441482   
     61. A(C  23,N   9,H  45)          117.1059         0.354520   
     62. A(C  23,N   9,C  26)          126.0449         0.415767   
     63. A(C  26,N   9,H  45)          116.8492         0.350003   
     64. A(C  11,C  10,H  27)          108.1342         0.322807   
     65. A(O   0,C  10,H  27)          108.1365         0.335820   
     66. A(O   0,C  10,C  11)          108.5600         0.377040   
     67. A(C  12,C  10,H  27)          109.9944         0.321181   
     68. A(C  11,C  10,C  12)          112.6387         0.359956   
     69. A(O   0,C  10,C  12)          109.2651         0.375037   
     70. A(C  10,C  11,H  28)          108.1850         0.321984   
     71. A(N   6,C  11,H  29)          113.1042         0.328986   
     72. A(C  10,C  11,H  29)          112.9874         0.322825   
     73. A(N   6,C  11,H  28)          108.4788         0.328122   
     74. A(H  28,C  11,H  29)          103.6905         0.288658   
     75. A(N   6,C  11,C  10)          110.0138         0.369042   
     76. A(C  13,C  12,H  30)          108.4318         0.320886   
     77. A(O   1,C  12,C  13)          108.6524         0.375604   
     78. A(C  10,C  12,H  30)          109.7911         0.320674   
     79. A(O   1,C  12,H  30)          107.1117         0.335545   
     80. A(O   1,C  12,C  10)          109.6458         0.375343   
     81. A(C  10,C  12,C  13)          113.0253         0.358317   
     82. A(O   2,C  13,H  31)          106.7355         0.335336   
     83. A(C  12,C  13,H  31)          110.0294         0.321085   
     84. A(C  12,C  13,C  19)          112.3572         0.361390   
     85. A(O   2,C  13,C  19)          108.4802         0.378115   
     86. A(C  19,C  13,H  31)          109.9940         0.323519   
     87. A(O   2,C  13,C  12)          109.0680         0.375115   
     88. A(N   6,C  14,C  17)          123.5724         0.413041   
     89. A(N   6,C  14,C  16)          118.5473         0.412417   
     90. A(C  16,C  14,C  17)          117.8804         0.424666   
     91. A(N   6,C  15,N   8)          124.9382         0.438119   
     92. A(N   8,C  15,C  18)          117.5613         0.417204   
     93. A(N   6,C  15,C  18)          117.5005         0.393696   
     94. A(C  14,C  16,C  21)          120.2814         0.425843   
     95. A(N   7,C  16,C  21)          117.5270         0.416503   
     96. A(N   7,C  16,C  14)          122.1917         0.414730   
     97. A(C  20,C  17,H  32)          117.2704         0.352714   
     98. A(C  14,C  17,H  32)          121.3328         0.350493   
     99. A(C  14,C  17,C  20)          121.3866         0.428170   
    100. A(N   7,C  18,C  23)          116.6921         0.421963   
    101. A(N   7,C  18,C  15)          121.9296         0.419116   
    102. A(C  15,C  18,C  23)          121.3784         0.377913   
    103. A(O   3,C  19,H  34)          106.9837         0.336702   
    104. A(C  13,C  19,H  33)          113.1117         0.324317   
    105. A(O   3,C  19,H  33)          107.1704         0.337171   
    106. A(O   3,C  19,C  13)          108.7784         0.379281   
    107. A(C  13,C  19,H  34)          111.4402         0.323873   
    108. A(H  33,C  19,H  34)          109.0855         0.289800   
    109. A(C  17,C  20,C  22)          120.0837         0.433606   
    110. A(C  22,C  20,C  24)          120.9079         0.407015   
    111. A(C  17,C  20,C  24)          119.0084         0.404656   
    112. A(C  16,C  21,C  22)          120.7807         0.431048   
    113. A(C  22,C  21,H  35)          120.0911         0.353415   
    114. A(C  16,C  21,H  35)          119.1281         0.350809   
    115. A(C  20,C  22,C  21)          119.5871         0.435316   
    116. A(C  21,C  22,C  25)          119.2317         0.406513   
    117. A(C  20,C  22,C  25)          121.1811         0.407306   
    118. A(O   4,C  23,N   9)          127.5175         0.467364   
    119. A(N   9,C  23,C  18)          111.8736         0.400238   
    120. A(O   4,C  23,C  18)          120.6090         0.443253   
    121. A(H  40,C  24,H  41)          109.4300         0.289211   
    122. A(H  39,C  24,H  41)          107.0759         0.289097   
    123. A(C  20,C  24,H  41)          110.6131         0.330505   
    124. A(H  39,C  24,H  40)          107.0800         0.289085   
    125. A(C  20,C  24,H  40)          110.5988         0.330491   
    126. A(C  20,C  24,H  39)          111.9063         0.330353   
    127. A(H  43,C  25,H  44)          109.4343         0.289228   
    128. A(H  42,C  25,H  44)          107.1150         0.289090   
    129. A(C  22,C  25,H  44)          110.6396         0.330725   
    130. A(H  42,C  25,H  43)          107.1087         0.289096   
    131. A(C  22,C  25,H  43)          110.6484         0.330733   
    132. A(C  22,C  25,H  42)          111.7594         0.330566   
    133. A(N   8,C  26,N   9)          119.5973         0.414765   
    134. A(O   5,C  26,N   9)          119.2243         0.456573   
    135. A(O   5,C  26,N   8)          121.1784         0.461788   
    136. D(C  11,C  10,O   0,H  36)     70.7792         0.018667   
    137. D(H  27,C  10,O   0,H  36)    -46.3155         0.018667   
    138. D(C  12,C  10,O   0,H  36)   -166.0269         0.018667   
    139. D(N   6,C  11,C  10,H  27)     58.4367         0.010893   
    140. D(N   6,C  11,C  10,C  12)   -179.7991         0.010893   
    141. D(H  28,C  11,N   6,C  15)    -28.2125         0.015721   
    142. D(H  29,C  11,N   6,C  14)     37.3890         0.015721   
    143. D(H  28,C  11,C  10,O   0)     59.6810         0.010893   
    144. D(H  28,C  11,C  10,H  27)    176.7772         0.010893   
    145. D(C  10,C  11,N   6,C  14)    -90.0032         0.015721   
    146. D(H  28,C  11,N   6,C  14)    151.8374         0.015721   
    147. D(H  28,C  11,C  10,C  12)    -61.4586         0.010893   
    148. D(C  10,C  11,N   6,C  15)     89.9468         0.015721   
    149. D(N   6,C  11,C  10,O   0)    -58.6595         0.010893   
    150. D(C  10,C  12,O   1,H  37)   -179.9605         0.018849   
    151. D(C  13,C  12,C  10,H  27)    -59.0278         0.010284   
    152. D(C  13,C  12,C  10,C  11)   -179.7319         0.010284   
    153. D(C  13,C  12,C  10,O   0)     59.5316         0.010284   
    154. D(O   1,C  12,C  10,H  27)     62.3519         0.010284   
    155. D(O   1,C  12,C  10,C  11)    -58.3522         0.010284   
    156. D(H  30,C  12,O   1,H  37)     60.9566         0.018849   
    157. D(O   1,C  12,C  10,O   0)   -179.0887         0.010284   
    158. D(C  13,C  12,O   1,H  37)    -55.9849         0.018849   
    159. D(C  19,C  13,C  12,O   1)    -63.3108         0.010361   
    160. D(O   2,C  13,C  12,C  10)    178.9468         0.010361   
    161. D(O   2,C  13,C  12,O   1)     57.0076         0.010361   
    162. D(O   2,C  13,C  12,H  30)    -59.0859         0.010361   
    163. D(H  31,C  13,O   2,H  38)     61.5270         0.020126   
    164. D(C  12,C  13,O   2,H  38)   -179.6340         0.020126   
    165. D(C  19,C  13,C  12,C  10)     58.6284         0.010361   
    166. D(C  19,C  13,O   2,H  38)    -56.9595         0.020126   
    167. D(C  19,C  13,C  12,H  30)   -179.4043         0.010361   
    168. D(C  17,C  14,N   6,C  15)   -179.9444         0.021058   
    169. D(C  17,C  14,N   6,C  11)      0.0064         0.021058   
    170. D(C  16,C  14,N   6,C  15)      0.0583         0.021058   
    171. D(C  16,C  14,N   6,C  11)   -179.9908         0.021058   
    172. D(C  18,C  15,N   8,C  26)      0.0107         0.046293   
    173. D(C  18,C  15,N   6,C  14)     -0.0696         0.025040   
    174. D(C  18,C  15,N   6,C  11)    179.9814         0.025040   
    175. D(N   8,C  15,N   6,C  14)    179.9632         0.025040   
    176. D(N   6,C  15,N   8,C  26)    179.9780         0.046293   
    177. D(N   8,C  15,N   6,C  11)      0.0141         0.025040   
    178. D(C  21,C  16,C  14,C  17)     -0.0301         0.023181   
    179. D(C  21,C  16,C  14,N   6)    179.9673         0.023181   
    180. D(N   7,C  16,C  14,C  17)    179.9925         0.023181   
    181. D(C  21,C  16,N   7,C  18)    179.9971         0.020415   
    182. D(C  14,C  16,N   7,C  18)     -0.0249         0.020415   
    183. D(N   7,C  16,C  14,N   6)     -0.0101         0.023181   
    184. D(H  32,C  17,C  14,C  16)   -178.7876         0.023598   
    185. D(H  32,C  17,C  14,N   6)      1.2151         0.023598   
    186. D(C  20,C  17,C  14,C  16)      0.0205         0.023598   
    187. D(C  20,C  17,C  14,N   6)   -179.9768         0.023598   
    188. D(C  23,C  18,C  15,N   8)      0.0245         0.011578   
    189. D(C  23,C  18,C  15,N   6)   -179.9452         0.011578   
    190. D(N   7,C  18,C  15,N   8)   -179.9951         0.011578   
    191. D(N   7,C  18,C  15,N   6)      0.0352         0.011578   
    192. D(C  23,C  18,N   7,C  16)    179.9931         0.049024   
    193. D(C  15,C  18,N   7,C  16)      0.0119         0.049024   
    194. D(O   3,C  19,C  13,C  12)   -178.5374         0.011296   
    195. D(O   3,C  19,C  13,O   2)     60.8048         0.011296   
    196. D(H  34,C  19,O   3,H  46)   -178.2978         0.020879   
    197. D(H  33,C  19,O   3,H  46)    -61.4124         0.020879   
    198. D(C  13,C  19,O   3,H  46)     61.2026         0.020879   
    199. D(H  33,C  19,C  13,H  31)     63.3569         0.011296   
    200. D(H  33,C  19,C  13,C  12)    -59.5820         0.011296   
    201. D(H  33,C  19,C  13,O   2)    179.7602         0.011296   
    202. D(O   3,C  19,C  13,H  31)    -55.5985         0.011296   
    203. D(C  24,C  20,C  17,H  32)     -1.1375         0.025529   
    204. D(C  24,C  20,C  17,C  14)   -179.9922         0.025529   
    205. D(C  22,C  20,C  17,H  32)    178.8541         0.025529   
    206. D(C  22,C  20,C  17,C  14)     -0.0005         0.025529   
    207. D(H  35,C  21,C  16,C  14)    179.9978         0.024377   
    208. D(H  35,C  21,C  16,N   7)     -0.0237         0.024377   
    209. D(C  22,C  21,C  16,C  14)      0.0203         0.024377   
    210. D(C  22,C  21,C  16,N   7)    179.9987         0.024377   
    211. D(C  25,C  22,C  21,H  35)     -0.0555         0.026740   
    212. D(C  25,C  22,C  21,C  16)    179.9218         0.026740   
    213. D(C  20,C  22,C  21,H  35)   -179.9770         0.026740   
    214. D(C  20,C  22,C  21,C  16)      0.0003         0.026740   
    215. D(C  25,C  22,C  20,C  24)      0.0614         0.027373   
    216. D(C  25,C  22,C  20,C  17)   -179.9301         0.027373   
    217. D(C  21,C  22,C  20,C  24)    179.9813         0.027373   
    218. D(C  21,C  22,C  20,C  17)     -0.0101         0.027373   
    219. D(N   9,C  23,C  18,N   7)    179.9619         0.012452   
    220. D(O   4,C  23,C  18,C  15)    179.9866         0.012452   
    221. D(O   4,C  23,C  18,N   7)      0.0053         0.012452   
    222. D(C  18,C  23,N   9,H  45)   -179.9615         0.028202   
    223. D(C  18,C  23,N   9,C  26)      0.0615         0.028202   
    224. D(O   4,C  23,N   9,H  45)     -0.0086         0.028202   
    225. D(N   9,C  23,C  18,C  15)     -0.0568         0.012452   
    226. D(O   4,C  23,N   9,C  26)   -179.9856         0.028202   
    227. D(H  41,C  24,C  20,C  17)   -119.4160         0.013437   
    228. D(H  40,C  24,C  20,C  22)    -60.8106         0.013437   
    229. D(H  40,C  24,C  20,C  17)    119.1810         0.013437   
    230. D(H  39,C  24,C  20,C  22)    179.8932         0.013437   
    231. D(H  39,C  24,C  20,C  17)     -0.1153         0.013437   
    232. D(H  44,C  25,C  22,C  20)     60.7638         0.013544   
    233. D(H  43,C  25,C  22,C  21)    119.3840         0.013544   
    234. D(H  43,C  25,C  22,C  20)    -60.6957         0.013544   
    235. D(H  42,C  25,C  22,C  21)      0.1148         0.013544   
    236. D(H  42,C  25,C  22,C  20)   -179.9650         0.013544   
    237. D(N   8,C  26,N   9,H  45)    179.9907         0.024011   
    238. D(N   8,C  26,N   9,C  23)     -0.0323         0.024011   
    239. D(O   5,C  26,N   9,H  45)      0.0427         0.024011   
    240. D(O   5,C  26,N   9,C  23)   -179.9802         0.024011   
    241. D(N   9,C  26,N   8,C  15)     -0.0095         0.024840   
    242. D(O   5,C  26,N   8,C  15)    179.9374         0.024840   
    -----------------------------------------------------------------

Number of atoms                         .... 47
Number of degrees of freedom            .... 242


         *************************************************************
         *                GEOMETRY OPTIMIZATION CYCLE   1            *
         *************************************************************
---------------------------------
CARTESIAN COORDINATES (ANGSTROEM)
---------------------------------
  O      1.577100    1.703900    0.639500
  O      3.772300   -0.245800   -1.560500
  O      5.718000    1.243000   -0.244700
  O      5.514500    0.098400    2.299200
  O     -4.659100    1.631900    1.067100
  O     -1.599200    4.669700   -0.523500
  N     -0.394600    0.168700   -0.676800
  N     -2.929300   -0.352000    0.476800
  N     -1.005600    2.473900   -0.601300
  N     -3.123500    3.186500    0.266300
  C      1.968700    0.594400   -0.170100
  C      0.920500    0.400400   -1.272200
  C      3.381300    0.848800   -0.732800
  C      4.443000    1.038500    0.367300
  C     -0.774400   -1.162800   -0.398400
  C     -1.259400    1.216900   -0.385200
  C     -2.040800   -1.396200    0.175600
  C      0.043900   -2.277100   -0.662800
  C     -2.589400    0.870500    0.225800
  C      4.540000   -0.170900    1.296200
  C     -0.378500   -3.576300   -0.369000
  C     -2.455500   -2.704900    0.466600
  C     -1.628600   -3.790700    0.195800
  C     -3.585200    1.928500    0.572600
  C      0.533300   -4.720400   -0.671600
  C     -2.103900   -5.168000    0.521000
  C     -1.885700    3.491200   -0.300900
  H      1.972000   -0.301600    0.458400
  H      0.875300    1.322100   -1.868500
  H      1.203100   -0.365800   -2.000700
  H      3.373300    1.745100   -1.365400
  H      4.223700    1.941200    0.949000
  H      1.036900   -2.160600   -1.085800
  H      3.602200   -0.393500    1.809400
  H      4.873700   -1.063100    0.757700
  H     -3.436900   -2.863500    0.909600
  H      0.799500    1.429300    1.153900
  H      4.664300   -0.053400   -1.896700
  H      6.369100    1.353800    0.469300
  H      1.477300   -4.384600   -1.114800
  H      0.784000   -5.265800    0.244100
  H      0.067700   -5.405400   -1.387600
  H     -3.108300   -5.158300    0.958600
  H     -2.152500   -5.783200   -0.383300
  H     -1.439500   -5.643500    1.249800
  H     -3.739500    3.968300    0.470900
  H      5.211800    0.874600    2.800800

----------------------------
CARTESIAN COORDINATES (A.U.)
----------------------------
  NO LB      ZA    FRAG     MASS         X           Y           Z
   0 O     8.0000    0    15.999    2.980287    3.219904    1.208480
   1 O     8.0000    0    15.999    7.128614   -0.464495   -2.948918
   2 O     8.0000    0    15.999   10.805454    2.348930   -0.462416
   3 O     8.0000    0    15.999   10.420895    0.185949    4.344858
   4 O     8.0000    0    15.999   -8.804423    3.083844    2.016527
   5 O     8.0000    0    15.999   -3.022050    8.824454   -0.989272
   6 N     7.0000    0    14.007   -0.745686    0.318797   -1.278967
   7 N     7.0000    0    14.007   -5.535575   -0.665184    0.901021
   8 N     7.0000    0    14.007   -1.900309    4.674993   -1.136292
   9 N     7.0000    0    14.007   -5.902560    6.021612    0.503234
  10 C     6.0000    0    12.011    3.720304    1.123253   -0.321442
  11 C     6.0000    0    12.011    1.739493    0.756646   -2.404110
  12 C     6.0000    0    12.011    6.389731    1.604000   -1.384791
  13 C     6.0000    0    12.011    8.396053    1.962481    0.694096
  14 C     6.0000    0    12.011   -1.463404   -2.197374   -0.752867
  15 C     6.0000    0    12.011   -2.379921    2.299608   -0.727923
  16 C     6.0000    0    12.011   -3.856553   -2.638436    0.331836
  17 C     6.0000    0    12.011    0.082959   -4.303095   -1.252510
  18 C     6.0000    0    12.011   -4.893257    1.645007    0.426700
  19 C     6.0000    0    12.011    8.579357   -0.322954    2.449463
  20 C     6.0000    0    12.011   -0.715261   -6.758228   -0.697309
  21 C     6.0000    0    12.011   -4.640223   -5.111520    0.881746
  22 C     6.0000    0    12.011   -3.077608   -7.163385    0.370008
  23 C     6.0000    0    12.011   -6.775046    3.644337    1.082057
  24 C     6.0000    0    12.011    1.007791   -8.920263   -1.269140
  25 C     6.0000    0    12.011   -3.975795   -9.766105    0.984547
  26 C     6.0000    0    12.011   -3.563457    6.597412   -0.568619
  27 H     1.0000    0     1.008    3.726540   -0.569941    0.866250
  28 H     1.0000    0     1.008    1.654077    2.498407   -3.530953
  29 H     1.0000    0     1.008    2.273530   -0.691262   -3.780775
  30 H     1.0000    0     1.008    6.374613    3.297761   -2.580232
  31 H     1.0000    0     1.008    7.981636    3.668336    1.793350
  32 H     1.0000    0     1.008    1.959457   -4.082942   -2.051865
  33 H     1.0000    0     1.008    6.807171   -0.743607    3.419270
  34 H     1.0000    0     1.008    9.209958   -2.008968    1.431845
  35 H     1.0000    0     1.008   -6.494800   -5.411231    1.718895
  36 H     1.0000    0     1.008    1.510836    2.700986    2.180555
  37 H     1.0000    0     1.008    8.814250   -0.100911   -3.584244
  38 H     1.0000    0     1.008   12.035855    2.558311    0.886848
  39 H     1.0000    0     1.008    2.791692   -8.285693   -2.106667
  40 H     1.0000    0     1.008    1.481545   -9.950920    0.461282
  41 H     1.0000    0     1.008    0.127934  -10.214726   -2.622184
  42 H     1.0000    0     1.008   -5.873836   -9.747774    1.811491
  43 H     1.0000    0     1.008   -4.067636  -10.928664   -0.724332
  44 H     1.0000    0     1.008   -2.720261  -10.664669    2.361780
  45 H     1.0000    0     1.008   -7.066631    7.499000    0.889872
  46 H     1.0000    0     1.008    9.848875    1.652754    5.292745

--------------------------------
INTERNAL COORDINATES (ANGSTROEM)
--------------------------------
 O      0   0   0     0.000000000000     0.00000000     0.00000000
 O      1   0   0     3.668819037511     0.00000000     0.00000000
 O      2   1   0     2.780935736402    81.39658656     0.00000000
 O      3   2   1     2.796953453313    99.22726570    69.14358098
 O      1   2   3     6.251257169562   129.18267654   178.95488652
 O      1   2   3     4.498602041746   128.15529782   117.23357610
 N      1   2   3     2.824373491591    81.33701989   180.63192160
 N      5   1   2     2.697502797033    49.74331604    32.75666660
 N      6   1   2     2.275950667304    35.77015205    65.85663732
 N      6   1   2     2.268734618681    87.32808266   111.83405132
 C      1   2   3     1.428213208873    23.53589977   205.91927330
 C      7   1   2     1.462078677774    58.38066774   337.39007109
 C      2   1   3     1.426925874038    23.15525120   336.24932334
 C      3   2   1     1.428981892817    60.11640295    22.99500414
 C      7   1   2     1.412319669905   127.46765272    80.44255367
 C      9   6   1     1.300447096194   151.15986800   126.65419258
 C      8   5   1     1.403747601957   179.27991866   154.11409990
 C     15   7   1     1.407546354476   123.57235948   289.83509020
 C      8   5   1     1.293460188796    61.04433538   333.80216348
 C      4   3   2     1.424142457762    59.10986048   348.79345674
 C     18  15   7     1.397376413140   121.38664387   180.02322908
 C     17   8  19     1.403336303243   117.52695540   179.99712457
 C     21  18  15     1.388422273662   120.08374086     0.00000000
 C      5   1   2     1.218918791388    24.56956109   281.91111775
 C     21  18  15     1.493958101822   119.00839074   180.00783963
 C     23  21  18     1.492856463294   121.18113427   180.06992463
 C      6   1   2     1.233083638688    59.15562703    94.76818475
 H     11   1   2     1.094458377463   108.13649085   120.54733011
 H     12   7   1     1.098702698641   108.47884247   270.57865333
 H     12   7   1     1.094366232118   113.10423565   156.13022210
 H     13   2   1     1.097087257241   107.11171593   241.76869091
 H     14   3   2     1.096054136437   106.73551377   213.10765567
 H     18  15   7     1.085610542506   121.33280575     1.21514167
 H     20   4   3     1.091967874985   107.17037520   207.85213148
 H     20   4   3     1.094238904445   106.98370905    90.96670132
 H     22  17   8     1.088369845227   119.12814972   359.97625118
 H      1   2   3     0.971943558032   130.23476145   222.41952343
 H      2   1   3     0.972477351921   130.61640651   335.22877477
 H      3   2   1     0.972627292440   151.24571564    93.73133186
 H     25  21  18     1.095592935355   111.90632142   359.88473248
 H     25  21  18     1.094905539305   110.59876762   119.18097834
 H     25  21  18     1.094835311816   110.61311414   240.58401381
 H     26  23  21     1.095630964331   111.75935213   180.03501352
 H     26  23  21     1.094802032333   110.64841038   299.30426211
 H     26  23  21     1.094841107193   110.63963859    60.76375851
 H     10   6   1     1.016134046275    88.53338565   152.03888059
 H      4   3   2     0.972479454796    99.50544670   243.97797184

---------------------------
INTERNAL COORDINATES (A.U.)
---------------------------
 O      0   0   0     0.000000000000     0.00000000     0.00000000
 O      1   0   0     6.933063215812     0.00000000     0.00000000
 O      2   1   0     5.255206937835    81.39658656     0.00000000
 O      3   2   1     5.285476036087    99.22726570    69.14358098
 O      1   2   3    11.813164043184   129.18267654   178.95488652
 O      1   2   3     8.501125844399   128.15529782   117.23357610
 N      1   2   3     5.337292399013    81.33701989   180.63192160
 N      5   1   2     5.097541531879    49.74331604    32.75666660
 N      6   1   2     4.300923455519    35.77015205    65.85663732
 N      6   1   2     4.287287099853    87.32808266   111.83405132
 C      1   2   3     2.698931825619    23.53589977   205.91927330
 C      7   1   2     2.762928287238    58.38066774   337.39007109
 C      2   1   3     2.696499115339    23.15525120   336.24932334
 C      3   2   1     2.700384427757    60.11640295    22.99500414
 C      7   1   2     2.668897389670   127.46765272    80.44255367
 C      9   6   1     2.457488863460   151.15986800   126.65419258
 C      8   5   1     2.652698528847   179.27991866   154.11409990
 C     15   7   1     2.659877130760   123.57235948   289.83509020
 C      8   5   1     2.444285521954    61.04433538   333.80216348
 C      4   3   2     2.691239220859    59.10986048   348.79345674
 C     18  15   7     2.640658726836   121.38664387   180.02322908
 C     17   8  19     2.651921286919   117.52695540   179.99712457
 C     21  18  15     2.623737855457   120.08374086     0.00000000
 C      5   1   2     2.303422695215    24.56956109   281.91111775
 C     21  18  15     2.823171667997   119.00839074   180.00783963
 C     23  21  18     2.821089872881   121.18113427   180.06992463
 C      6   1   2     2.330190377339    59.15562703    94.76818475
 H     11   1   2     2.068226598382   108.13649085   120.54733011
 H     12   7   1     2.076247203031   108.47884247   270.57865333
 H     12   7   1     2.068052468914   113.10423565   156.13022210
 H     13   2   1     2.073194461200   107.11171593   241.76869091
 H     14   3   2     2.071242145817   106.73551377   213.10765567
 H     18  15   7     2.051506613434   121.33280575     1.21514167
 H     20   4   3     2.063520230762   107.17037520   207.85213148
 H     20   4   3     2.067811854482   106.98370905    90.96670132
 H     22  17   8     2.056720939898   119.12814972   359.97625118
 H      1   2   3     1.836707142310   130.23476145   222.41952343
 H      2   1   3     1.837715866572   130.61640651   335.22877477
 H      3   2   1     1.837999213090   151.24571564    93.73133186
 H     25  21  18     2.070370602080   111.90632142   359.88473248
 H     25  21  18     2.069071611799   110.59876762   119.18097834
 H     25  21  18     2.068938901079   110.61311414   240.58401381
 H     26  23  21     2.070442466429   111.75935213   180.03501352
 H     26  23  21     2.068876011969   110.64841038   299.30426211
 H     26  23  21     2.068949852754   110.63963859    60.76375851
 H     10   6   1     1.920215062814    88.53338565   152.03888059
 H      4   3   2     1.837719840429    99.50544670   243.97797184

---------------------
BASIS SET INFORMATION
---------------------
There are 4 groups of distinct atoms

 Group   1 Type O   : 11s6p2d contracted to 5s3p2d pattern {62111/411/11}
 Group   2 Type N   : 11s6p1d contracted to 5s3p1d pattern {62111/411/1}
 Group   3 Type C   : 11s6p1d contracted to 5s3p1d pattern {62111/411/1}
 Group   4 Type H   : 5s contracted to 3s pattern {311}

Atom   0O    basis set group =>   1
Atom   1O    basis set group =>   1
Atom   2O    basis set group =>   1
Atom   3O    basis set group =>   1
Atom   4O    basis set group =>   1
Atom   5O    basis set group =>   1
Atom   6N    basis set group =>   2
Atom   7N    basis set group =>   2
Atom   8N    basis set group =>   2
Atom   9N    basis set group =>   2
Atom  10C    basis set group =>   3
Atom  11C    basis set group =>   3
Atom  12C    basis set group =>   3
Atom  13C    basis set group =>   3
Atom  14C    basis set group =>   3
Atom  15C    basis set group =>   3
Atom  16C    basis set group =>   3
Atom  17C    basis set group =>   3
Atom  18C    basis set group =>   3
Atom  19C    basis set group =>   3
Atom  20C    basis set group =>   3
Atom  21C    basis set group =>   3
Atom  22C    basis set group =>   3
Atom  23C    basis set group =>   3
Atom  24C    basis set group =>   3
Atom  25C    basis set group =>   3
Atom  26C    basis set group =>   3
Atom  27H    basis set group =>   4
Atom  28H    basis set group =>   4
Atom  29H    basis set group =>   4
Atom  30H    basis set group =>   4
Atom  31H    basis set group =>   4
Atom  32H    basis set group =>   4
Atom  33H    basis set group =>   4
Atom  34H    basis set group =>   4
Atom  35H    basis set group =>   4
Atom  36H    basis set group =>   4
Atom  37H    basis set group =>   4
Atom  38H    basis set group =>   4
Atom  39H    basis set group =>   4
Atom  40H    basis set group =>   4
Atom  41H    basis set group =>   4
Atom  42H    basis set group =>   4
Atom  43H    basis set group =>   4
Atom  44H    basis set group =>   4
Atom  45H    basis set group =>   4
Atom  46H    basis set group =>   4
---------------------------------
AUXILIARY/J BASIS SET INFORMATION
---------------------------------
There are 4 groups of distinct atoms

 Group   1 Type O   : 8s3p3d contracted to 6s3p3d pattern {311111/111/111}
 Group   2 Type N   : 8s3p3d contracted to 6s3p3d pattern {311111/111/111}
 Group   3 Type C   : 8s3p3d contracted to 6s3p3d pattern {311111/111/111}
 Group   4 Type H   : 5s2p contracted to 3s1p pattern {311/2}

Atom   0O    basis set group =>   1
Atom   1O    basis set group =>   1
Atom   2O    basis set group =>   1
Atom   3O    basis set group =>   1
Atom   4O    basis set group =>   1
Atom   5O    basis set group =>   1
Atom   6N    basis set group =>   2
Atom   7N    basis set group =>   2
Atom   8N    basis set group =>   2
Atom   9N    basis set group =>   2
Atom  10C    basis set group =>   3
Atom  11C    basis set group =>   3
Atom  12C    basis set group =>   3
Atom  13C    basis set group =>   3
Atom  14C    basis set group =>   3
Atom  15C    basis set group =>   3
Atom  16C    basis set group =>   3
Atom  17C    basis set group =>   3
Atom  18C    basis set group =>   3
Atom  19C    basis set group =>   3
Atom  20C    basis set group =>   3
Atom  21C    basis set group =>   3
Atom  22C    basis set group =>   3
Atom  23C    basis set group =>   3
Atom  24C    basis set group =>   3
Atom  25C    basis set group =>   3
Atom  26C    basis set group =>   3
Atom  27H    basis set group =>   4
Atom  28H    basis set group =>   4
Atom  29H    basis set group =>   4
Atom  30H    basis set group =>   4
Atom  31H    basis set group =>   4
Atom  32H    basis set group =>   4
Atom  33H    basis set group =>   4
Atom  34H    basis set group =>   4
Atom  35H    basis set group =>   4
Atom  36H    basis set group =>   4
Atom  37H    basis set group =>   4
Atom  38H    basis set group =>   4
Atom  39H    basis set group =>   4
Atom  40H    basis set group =>   4
Atom  41H    basis set group =>   4
Atom  42H    basis set group =>   4
Atom  43H    basis set group =>   4
Atom  44H    basis set group =>   4
Atom  45H    basis set group =>   4
Atom  46H    basis set group =>   4


           ************************************************************
           *        Program running with 16 parallel MPI-processes    *
           *              working on a common directory               *
           ************************************************************
------------------------------------------------------------------------------
                             ORCA STARTUP CALCULATIONS
                           -- RI-GTO INTEGRALS CHOSEN --
------------------------------------------------------------------------------
------------------------------------------------------------------------------
                   ___                                                        
                  /   \      - P O W E R E D   B Y -                         
                 /     \                                                     
                 |  |  |   _    _      __       _____    __    __             
                 |  |  |  | |  | |    /  \     |  _  \  |  |  /  |          
                  \  \/   | |  | |   /    \    | | | |  |  | /  /          
                 / \  \   | |__| |  /  /\  \   | |_| |  |  |/  /          
                |  |  |   |  __  | /  /__\  \  |    /   |      \           
                |  |  |   | |  | | |   __   |  |    \   |  |\   \          
                \     /   | |  | | |  |  |  |  | |\  \  |  | \   \       
                 \___/    |_|  |_| |__|  |__|  |_| \__\ |__|  \__/        
                                                                              
                      - O R C A' S   B I G   F R I E N D -                    
                                      &                                       
                       - I N T E G R A L  F E E D E R -                       
                                                                              
 v1 FN, 2020, v2 2021, v3 2022-2024                                           
------------------------------------------------------------------------------


----------------------
SHARK INTEGRAL PACKAGE
----------------------

Number of atoms                             ...     47
Number of basis functions                   ...    603
Number of shells                            ...    309
Maximum angular momentum                    ...      2
Integral batch strategy                     ... SHARK/LIBINT Hybrid
RI-J (if used) integral strategy            ... SPLIT-RIJ (Revised 2003 algorithm where possible)
Printlevel                                  ...      1
Contraction scheme used                     ... SEGMENTED contraction
Prescreening option                         ... SCHWARTZ
   Thresh                                   ... 2.500e-11
   Tcut                                     ... 2.500e-12
   Tpresel                                  ... 2.500e-12 
Coulomb Range Separation                    ... NOT USED
Exchange Range Separation                   ... NOT USED
Multipole approximations                    ... NOT USED
Finite Nucleus Model                        ... NOT USED
CABS basis                                  ... NOT available
Auxiliary Coulomb fitting basis             ... AVAILABLE
   # of basis functions in Aux-J            ...    930
   # of shells in Aux-J                     ...    404
   Maximum angular momentum in Aux-J        ...      2
Auxiliary J/K fitting basis                 ... NOT available
Auxiliary Correlation fitting basis         ... NOT available
Auxiliary 'external' fitting basis          ... NOT available

Checking pre-screening integrals            ... done (  0.0 sec) Dimension = 309
Check shell pair data                       ... done (  0.0 sec)
Shell pair information
Shell pair cut-off parameter TPreSel        ...   2.5e-12
Total number of shell pairs                 ...     47895
Shell pairs after pre-screening             ...     31892
Total number of primitive shell pairs       ...    176182
Primitive shell pairs kept                  ...     71933
          la=0 lb=0:  11760 shell pairs
          la=1 lb=0:  11278 shell pairs
          la=1 lb=1:   2672 shell pairs
          la=2 lb=0:   3899 shell pairs
          la=2 lb=1:   1932 shell pairs
          la=2 lb=2:    351 shell pairs

Calculating one electron integrals          ... done (  0.5 sec)
Calculating RI/J V-Matrix + Cholesky decomp.... done (  0.3 sec)
Calculating Nuclear repulsion               ... done (  0.0 sec) ENN=   2542.114060859602 Eh

Diagonalization of the overlap matrix:
Smallest eigenvalue                        ... 4.693e-06
Time for diagonalization                   ...    0.431 sec
Threshold for overlap eigenvalues          ... 1.000e-07
Number of eigenvalues below threshold      ... 0
Time for construction of square roots      ...    0.025 sec
Total time needed                          ...    0.461 sec

-------------------
DFT GRID GENERATION
-------------------

General Integration Accuracy     IntAcc      ... 4.959
Radial Grid Type                 RadialGrid  ... OptM3 with GC (2021)
Angular Grid (max. ang.)         AngularGrid ... 6 (Lebedev-590)
Angular grid pruning method      GridPruning ... 4 (adaptive)
Weight generation scheme         WeightScheme... mBecke (2022)
Basis function cutoff            BFCut       ... 1.0000e-11
Integration weight cutoff        WCut        ... 1.0000e-14
Partially contracted basis set               ... off
Rotationally invariant grid construction     ... off
Angular grids for H and He will be reduced by one unit
Diffuse basis detected: some atoms will have their outermost
                        angular grid increased by 1.

Total number of grid points                  ...   555366
Total number of batches                      ...     8701
Average number of points per batch           ...       63
Average number of grid points per atom       ...    11816
Initializing property integral containers    ... done (  0.1 sec)

SHARK setup successfully completed in   9.0 seconds

Maximum memory used throughout the entire STARTUP-calculation: 135.5 MB


           ************************************************************
           *        Program running with 16 parallel MPI-processes    *
           *              working on a common directory               *
           ************************************************************
-------------------------------------------------------------------------------
                                 ORCA GUESS
                   Start orbitals & Density for SCF / CASSCF
-------------------------------------------------------------------------------

------------
SCF SETTINGS
------------
Hamiltonian:
 Density Functional     Method          .... DFT(GTOs)
 Exchange Functional    Exchange        .... B973C
 Correlation Functional Correlation     .... B973C
 Gradients option       PostSCFGGA      .... off
 RI-approximation to the Coulomb term is turned on
   Number of AuxJ basis functions       .... 930


General Settings:
 Integral files         IntName         .... m1_00_Vitamin_B2-B97-3C-TZ
 Hartree-Fock type      HFTyp           .... RHF
 Total Charge           Charge          ....    0
 Multiplicity           Mult            ....    1
 Number of Electrons    NEL             ....  198
 Basis Dimension        Dim             ....  603
 Nuclear Repulsion      ENuc            ....   2542.1140608596 Eh

Convergence Acceleration:
 AO-DIIS                CNVDIIS         .... on
   Start iteration      DIISMaxIt       ....    12
   Startup error        DIISStart       ....  0.200000
   # of expansion vecs  DIISMaxEq       ....     5
   Bias factor          DIISBfac        ....   1.050
   Max. coefficient     DIISMaxC        ....  10.000
 MO-DIIS                CNVKDIIS        .... off
 Trust-Rad. Augm. Hess. CNVTRAH         .... off
 SOSCF                  CNVSOSCF        .... on
   Start iteration      SOSCFMaxIt      ....   150
   Startup grad/error   SOSCFStart      ....  0.003300
   Hessian update       SOSCFHessUp     .... L-BFGS
 Level Shifting         CNVShift        .... on
   Level shift para.    LevelShift      ....    0.2500
   Turn off err/grad.   ShiftErr        ....    0.0010
 Zerner damping         CNVZerner       .... off
 Static damping         CNVDamp         .... on
   Fraction old density DampFac         ....    0.7000
   Max. Damping (<1)    DampMax         ....    0.9800
   Min. Damping (>=0)   DampMin         ....    0.0000
   Turn off err/grad.   DampErr         ....    0.1000

SCF Procedure:
 Maximum # iterations   MaxIter         ....   800
 SCF integral mode      SCFMode         .... Direct
   Integral package                     .... SHARK and LIBINT hybrid scheme
 Reset frequency        DirectResetFreq ....    20
 Integral Threshold     Thresh          ....  2.500e-11 Eh
 Primitive CutOff       TCut            ....  2.500e-12 Eh

Convergence Tolerance:
 Convergence Check Mode ConvCheckMode   .... Total+1el-Energy
 Convergence forced     ConvForced      .... 0
 Energy Change          TolE            ....  1.000e-08 Eh
 1-El. energy change                    ....  1.000e-05 Eh
 Orbital Gradient       TolG            ....  1.000e-05
 Orbital Rotation angle TolX            ....  1.000e-05
 DIIS Error             TolErr          ....  5.000e-07

--------------------------------
INITIAL GUESS: MINIMAL BASIS EHT
--------------------------------
The minimal basis has 155 functions
EHT matrix was diagonalized
Basis set overlap was calculated now projecting the orbitals
Using GuessMode=FMatrix for the initial guess
C*T matrix was formed
Effective Fockian was calculated
Effective Fockian was diagonalized
Initial density was built
                      ------------------
                      INITIAL GUESS DONE
                      ------------------
             **** ENERGY FILE WAS UPDATED (m1_00_Vitamin_B2-B97-3C-TZ.en.tmp) ****
Finished Guess after   1.3 sec
Maximum memory used throughout the entire GUESS-calculation: 56.3 MB


           ************************************************************
           *        Program running with 16 parallel MPI-processes    *
           *              working on a common directory               *
           ************************************************************

-------------------------------------------------------------------------------------------
                                      ORCA LEAN-SCF
                              memory conserving SCF solver
-------------------------------------------------------------------------------------------

----------------------------------------D-I-I-S--------------------------------------------
Iteration    Energy (Eh)           Delta-E    RMSDP     MaxDP     DIISErr   Damp  Time(sec)
-------------------------------------------------------------------------------------------
               ***  Starting incremental Fock matrix formation  ***
    1    -1324.6665053698347947     0.00e+00  6.89e-03  3.00e-01  4.62e-01  0.700   3.4
Warning: op=0 Small HOMO/LUMO gap (  -0.462) - skipping pre-diagonalization
         LevelShift set to 0.562 Eh
         Will do a full diagonalization
    2    -1326.2787487650462026    -1.61e+00  6.13e-03  6.92e-01  3.27e-01  0.700   1.3
    3    -1326.9806733049131253    -7.02e-01  3.96e-03  3.62e-01  2.29e-01  0.700   1.2
                               ***Turning on AO-DIIS***
    4    -1327.5826308551568218    -6.02e-01  2.69e-03  2.11e-01  1.62e-01  0.700   1.2
    5    -1328.0644684629078256    -4.82e-01  2.29e-03  1.63e-01  1.11e-01  0.700   1.2
    6    -1328.4132306235846954    -3.49e-01  1.81e-03  1.44e-01  7.71e-02  0.700   1.2
    7    -1328.6634541506500682    -2.50e-01  4.21e-03  2.75e-01  5.39e-02  0.000   1.2
    8    -1329.2577394332606673    -5.94e-01  1.10e-03  1.01e-01  2.15e-02  0.000   1.2
    9    -1329.2812297770469740    -2.35e-02  8.33e-04  9.16e-02  1.75e-02  0.000   1.2
   10    -1329.2979760221996912    -1.67e-02  7.36e-04  8.65e-02  1.16e-02  0.000   1.1
   11    -1329.3100763901165919    -1.21e-02  5.30e-04  5.90e-02  1.07e-02  0.000   1.1
   12    -1329.3193086773562754    -9.23e-03  4.60e-04  5.25e-02  9.81e-03  0.000   1.1
   13    -1329.3260967869496199    -6.79e-03  3.15e-04  2.64e-02  8.60e-03  0.000   1.1
   14    -1329.3312431386293611    -5.15e-03  2.74e-04  1.83e-02  7.95e-03  0.000   1.1
   15    -1329.3350725992586376    -3.83e-03  2.14e-04  1.59e-02  7.03e-03  0.000   1.1
   16    -1329.3379551640564387    -2.88e-03  1.87e-04  1.34e-02  6.17e-03  0.000   1.1
   17    -1329.3400944843133402    -2.14e-03  1.47e-04  5.46e-03  5.58e-03  0.000   1.1
   18    -1329.3417380260871141    -1.64e-03  1.31e-04  5.17e-03  4.85e-03  0.000   1.1
   19    -1329.3429192230155422    -1.18e-03  1.11e-04  4.33e-03  4.30e-03  0.000   1.1
   20    -1329.3438407045414351    -9.21e-04  9.65e-05  4.66e-03  3.73e-03  0.000   1.1
               *** Restarting incremental Fock matrix formation ***
                             ****Resetting DIIS****
Warning: op=0 Small HOMO/LUMO gap (   0.080) - skipping pre-diagonalization
         Will do a full diagonalization
                              *** Initializing SOSCF ***
---------------------------------------S-O-S-C-F--------------------------------------
Iteration    Energy (Eh)           Delta-E    RMSDP     MaxDP     MaxGrad    Time(sec)
--------------------------------------------------------------------------------------
   21    -1329.3445149108138139    -6.74e-04  5.81e-04  2.34e-02  3.28e-03     1.5
               *** Restarting incremental Fock matrix formation ***
   22    -1329.3462809899256172    -1.77e-03  4.03e-04  5.79e-02  2.68e-03     1.3
   23    -1329.3450370741361439     1.24e-03  2.82e-04  4.29e-02  6.69e-03     1.1
   24    -1329.3465141580090858    -1.48e-03  1.24e-04  1.23e-02  3.97e-04     1.1
   25    -1329.3464535222574341     6.06e-05  8.38e-05  8.61e-03  1.01e-03     1.1
   26    -1329.3465326546802316    -7.91e-05  3.74e-05  1.94e-03  2.29e-04     1.1
   27    -1329.3465219326126316     1.07e-05  2.58e-05  1.61e-03  4.33e-04     1.1
   28    -1329.3465362837405337    -1.44e-05  1.76e-05  1.10e-03  7.33e-05     1.1
   29    -1329.3465347220853801     1.56e-06  1.49e-05  1.27e-03  1.05e-04     1.1
   30    -1329.3465368914630744    -2.17e-06  5.39e-05  5.62e-03  2.59e-05     1.1
   31    -1329.3465366927080140     1.99e-07  1.49e-05  1.66e-03  5.31e-05     1.1
   32    -1329.3465369714249391    -2.79e-07  3.90e-05  4.24e-03  1.11e-05     1.0
   33    -1329.3465369312611983     4.02e-08  6.79e-06  6.33e-04  2.55e-05     1.0
   34    -1329.3465369764899151    -4.52e-08  9.53e-06  7.71e-04  3.43e-06     1.0
   35    -1329.3465369889627254    -1.25e-08  1.37e-05  1.42e-03  6.24e-06     1.0
   36    -1329.3465369733012267     1.57e-08  2.88e-05  3.50e-03  8.07e-07     1.0
                  *** Gradient check signals convergence ***

               *****************************************************
               *                     SUCCESS                       *
               *           SCF CONVERGED AFTER  36 CYCLES          *
               *****************************************************

             **** ENERGY FILE WAS UPDATED (m1_00_Vitamin_B2-B97-3C-TZ.en.tmp) ****

----------------
TOTAL SCF ENERGY
----------------

Total Energy       :      -1329.34653697330123 Eh          -36173.35829 eV

Components:
Nuclear Repulsion  :       2542.11406085960152 Eh           69174.44036 eV
Electronic Energy  :      -3871.46059783290275 Eh         -105347.79865 eV
One Electron Energy:      -6868.23220193074030 Eh         -186894.09973 eV
Two Electron Energy:       2996.77160409783755 Eh           81546.30108 eV

Virial components:
Potential Energy   :      -2653.27069078229715 Eh          -72199.16603 eV
Kinetic Energy     :       1323.92415380899592 Eh           36025.80774 eV
Virial Ratio       :          2.00409569018641

DFT components:
N(Alpha)           :       98.999974901767 electrons
N(Beta)            :       98.999974901767 electrons
N(Total)           :      197.999949803533 electrons
E(XC)              :     -177.917595418312 Eh       

---------------
SCF CONVERGENCE
---------------

  Last Energy change         ...   -1.5661e-08  Tolerance :   1.0000e-08
  Last MAX-Density change    ...    3.5037e-03  Tolerance :   1.0000e-07
  Last RMS-Density change    ...    2.8846e-05  Tolerance :   5.0000e-09
  Last DIIS Error            ...    3.2835e-03  Tolerance :   5.0000e-07
  Last Orbital Gradient      ...    8.0679e-07  Tolerance :   1.0000e-05
  Last Orbital Rotation      ...    2.7025e-06  Tolerance :   1.0000e-05


----------------
ORBITAL ENERGIES
----------------

  NO   OCC          E(Eh)            E(eV) 
   0   2.0000     -18.765756      -510.6422 
   1   2.0000     -18.763670      -510.5854 
   2   2.0000     -18.762509      -510.5538 
   3   2.0000     -18.758568      -510.4466 
   4   2.0000     -18.730838      -509.6920 
   5   2.0000     -18.715013      -509.2614 
   6   2.0000     -14.091535      -383.4502 
   7   2.0000     -14.045598      -382.2002 
   8   2.0000     -14.023969      -381.6116 
   9   2.0000     -13.987653      -380.6234 
  10   2.0000     -10.021468      -272.6980 
  11   2.0000     -10.012282      -272.4480 
  12   2.0000     -10.011659      -272.4311 
  13   2.0000      -9.980975      -271.5961 
  14   2.0000      -9.975668      -271.4517 
  15   2.0000      -9.970543      -271.3123 
  16   2.0000      -9.968234      -271.2494 
  17   2.0000      -9.959075      -271.0002 
  18   2.0000      -9.957072      -270.9457 
  19   2.0000      -9.955526      -270.9036 
  20   2.0000      -9.947688      -270.6903 
  21   2.0000      -9.936214      -270.3781 
  22   2.0000      -9.928564      -270.1700 
  23   2.0000      -9.925926      -270.0982 
  24   2.0000      -9.922600      -270.0077 
  25   2.0000      -9.915204      -269.8064 
  26   2.0000      -9.909965      -269.6639 
  27   2.0000      -0.986318       -26.8391 
  28   2.0000      -0.977104       -26.5884 
  29   2.0000      -0.969046       -26.3691 
  30   2.0000      -0.960594       -26.1391 
  31   2.0000      -0.957888       -26.0655 
  32   2.0000      -0.947861       -25.7926 
  33   2.0000      -0.940505       -25.5924 
  34   2.0000      -0.882188       -24.0056 
  35   2.0000      -0.877681       -23.8829 
  36   2.0000      -0.845469       -23.0064 
  37   2.0000      -0.816471       -22.2173 
  38   2.0000      -0.746302       -20.3079 
  39   2.0000      -0.736117       -20.0308 
  40   2.0000      -0.730171       -19.8690 
  41   2.0000      -0.704382       -19.1672 
  42   2.0000      -0.679533       -18.4910 
  43   2.0000      -0.665740       -18.1157 
  44   2.0000      -0.650825       -17.7098 
  45   2.0000      -0.630783       -17.1645 
  46   2.0000      -0.614199       -16.7132 
  47   2.0000      -0.601335       -16.3631 
  48   2.0000      -0.579404       -15.7664 
  49   2.0000      -0.569496       -15.4968 
  50   2.0000      -0.557855       -15.1800 
  51   2.0000      -0.547732       -14.9045 
  52   2.0000      -0.527751       -14.3608 
  53   2.0000      -0.519031       -14.1236 
  54   2.0000      -0.509829       -13.8732 
  55   2.0000      -0.495963       -13.4958 
  56   2.0000      -0.485159       -13.2019 
  57   2.0000      -0.471932       -12.8419 
  58   2.0000      -0.465371       -12.6634 
  59   2.0000      -0.462670       -12.5899 
  60   2.0000      -0.454573       -12.3696 
  61   2.0000      -0.449485       -12.2311 
  62   2.0000      -0.435299       -11.8451 
  63   2.0000      -0.431683       -11.7467 
  64   2.0000      -0.426886       -11.6162 
  65   2.0000      -0.421930       -11.4813 
  66   2.0000      -0.419172       -11.4063 
  67   2.0000      -0.415221       -11.2987 
  68   2.0000      -0.398635       -10.8474 
  69   2.0000      -0.390415       -10.6237 
  70   2.0000      -0.387280       -10.5384 
  71   2.0000      -0.386639       -10.5210 
  72   2.0000      -0.384853       -10.4724 
  73   2.0000      -0.379992       -10.3401 
  74   2.0000      -0.373577       -10.1656 
  75   2.0000      -0.371824       -10.1179 
  76   2.0000      -0.368463       -10.0264 
  77   2.0000      -0.366497        -9.9729 
  78   2.0000      -0.360098        -9.7988 
  79   2.0000      -0.340537        -9.2665 
  80   2.0000      -0.338579        -9.2132 
  81   2.0000      -0.335727        -9.1356 
  82   2.0000      -0.330831        -9.0024 
  83   2.0000      -0.325820        -8.8660 
  84   2.0000      -0.318165        -8.6577 
  85   2.0000      -0.310582        -8.4514 
  86   2.0000      -0.299568        -8.1517 
  87   2.0000      -0.279935        -7.6174 
  88   2.0000      -0.273547        -7.4436 
  89   2.0000      -0.262268        -7.1367 
  90   2.0000      -0.252354        -6.8669 
  91   2.0000      -0.250761        -6.8235 
  92   2.0000      -0.247001        -6.7212 
  93   2.0000      -0.243329        -6.6213 
  94   2.0000      -0.241187        -6.5630 
  95   2.0000      -0.232387        -6.3236 
  96   2.0000      -0.222670        -6.0592 
  97   2.0000      -0.216835        -5.9004 
  98   2.0000      -0.213249        -5.8028 
  99   0.0000      -0.131704        -3.5839 
 100   0.0000      -0.075341        -2.0501 
 101   0.0000      -0.057836        -1.5738 
 102   0.0000      -0.028640        -0.7793 
 103   0.0000      -0.012186        -0.3316 
 104   0.0000      -0.007477        -0.2035 
 105   0.0000      -0.005004        -0.1362 
 106   0.0000       0.004892         0.1331 
 107   0.0000       0.015156         0.4124 
 108   0.0000       0.029768         0.8100 
 109   0.0000       0.040071         1.0904 
*Only the first 10 virtual orbitals were printed.

                    ********************************
                    * MULLIKEN POPULATION ANALYSIS *
                    ********************************

-----------------------
MULLIKEN ATOMIC CHARGES
-----------------------
   0 O :   -0.551879
   1 O :   -0.621683
   2 O :   -0.597818
   3 O :   -0.575519
   4 O :   -0.332606
   5 O :   -0.377960
   6 N :    0.022960
   7 N :    0.054755
   8 N :   -0.091209
   9 N :   -0.381548
  10 C :   -0.113293
  11 C :   -0.443787
  12 C :    0.105416
  13 C :    0.111742
  14 C :    0.013803
  15 C :   -0.107389
  16 C :   -0.093008
  17 C :   -0.208108
  18 C :    0.077301
  19 C :   -0.286993
  20 C :    0.175821
  21 C :   -0.204396
  22 C :    0.164751
  23 C :    0.196161
  24 C :   -0.647165
  25 C :   -0.628638
  26 C :    0.288264
  27 H :    0.225855
  28 H :    0.233846
  29 H :    0.247488
  30 H :    0.163291
  31 H :    0.156489
  32 H :    0.246867
  33 H :    0.164902
  34 H :    0.177822
  35 H :    0.209643
  36 H :    0.448430
  37 H :    0.444664
  38 H :    0.438428
  39 H :    0.194704
  40 H :    0.182195
  41 H :    0.183021
  42 H :    0.194953
  43 H :    0.177059
  44 H :    0.176410
  45 H :    0.364527
  46 H :    0.421430
Sum of atomic charges:    0.0000000

--------------------------------
MULLIKEN REDUCED ORBITAL CHARGES
--------------------------------
  0 O s       :     3.822320  s :     3.822320
      pz      :     1.576478  p :     4.705249
      px      :     1.585710
      py      :     1.543061
      dz2     :     0.003489  d :     0.024311
      dxz     :     0.005330
      dyz     :     0.006002
      dx2y2   :     0.010352
      dxy     :    -0.000862

  1 O s       :     3.822040  s :     3.822040
      pz      :     1.671713  p :     4.758640
      px      :     1.509911
      py      :     1.577016
      dz2     :     0.008921  d :     0.041002
      dxz     :     0.006878
      dyz     :     0.006908
      dx2y2   :     0.014936
      dxy     :     0.003359

  2 O s       :     3.812444  s :     3.812444
      pz      :     1.585706  p :     4.750104
      px      :     1.258177
      py      :     1.906221
      dz2     :     0.002084  d :     0.035270
      dxz     :     0.016931
      dyz     :     0.003924
      dx2y2   :     0.005174
      dxy     :     0.007157

  3 O s       :     3.820421  s :     3.820421
      pz      :     1.512440  p :     4.716037
      px      :     1.622333
      py      :     1.581264
      dz2     :     0.005487  d :     0.039062
      dxz     :     0.008285
      dyz     :     0.009464
      dx2y2   :     0.008521
      dxy     :     0.007306

  4 O s       :     3.844176  s :     3.844176
      pz      :     1.387873  p :     4.461836
      px      :     1.339901
      py      :     1.734062
      dz2     :     0.003526  d :     0.026593
      dxz     :     0.008813
      dyz     :     0.002294
      dx2y2   :     0.006468
      dxy     :     0.005492

  5 O s       :     3.844283  s :     3.844283
      pz      :     1.462573  p :     4.504852
      px      :     1.710313
      py      :     1.331966
      dz2     :     0.005664  d :     0.028825
      dxz     :     0.002264
      dyz     :     0.001244
      dx2y2   :     0.011704
      dxy     :     0.007948

  6 N s       :     3.241192  s :     3.241192
      pz      :     1.434817  p :     3.686090
      px      :     1.168660
      py      :     1.082613
      dz2     :     0.004913  d :     0.049757
      dxz     :     0.006110
      dyz     :     0.009230
      dx2y2   :     0.014060
      dxy     :     0.015445

  7 N s       :     3.480750  s :     3.480750
      pz      :     1.105320  p :     3.418165
      px      :     1.328834
      py      :     0.984010
      dz2     :     0.005551  d :     0.046330
      dxz     :     0.005227
      dyz     :     0.010453
      dx2y2   :     0.009334
      dxy     :     0.015765

  8 N s       :     3.437540  s :     3.437540
      pz      :     1.270088  p :     3.611220
      px      :     1.380211
      py      :     0.960921
      dz2     :     0.005664  d :     0.042449
      dxz     :     0.004827
      dyz     :     0.008466
      dx2y2   :     0.009760
      dxy     :     0.013731

  9 N s       :     3.361192  s :     3.361192
      pz      :     1.519958  p :     3.981086
      px      :     1.258044
      py      :     1.203084
      dz2     :     0.004776  d :     0.039269
      dxz     :     0.005055
      dyz     :     0.005261
      dx2y2   :     0.009822
      dxy     :     0.014355

 10 C s       :     3.266377  s :     3.266377
      pz      :     0.892125  p :     2.777750
      px      :     0.998339
      py      :     0.887287
      dz2     :     0.010056  d :     0.069166
      dxz     :     0.014221
      dyz     :     0.019619
      dx2y2   :     0.016637
      dxy     :     0.008633

 11 C s       :     3.344597  s :     3.344597
      pz      :     0.978056  p :     3.046846
      px      :     0.821294
      py      :     1.247496
      dz2     :     0.005546  d :     0.052344
      dxz     :     0.014696
      dyz     :     0.013331
      dx2y2   :     0.013715
      dxy     :     0.005056

 12 C s       :     3.091329  s :     3.091329
      pz      :     0.891847  p :     2.735332
      px      :     0.950646
      py      :     0.892839
      dz2     :     0.010189  d :     0.067923
      dxz     :     0.013925
      dyz     :     0.019356
      dx2y2   :     0.016651
      dxy     :     0.007802

 13 C s       :     3.052424  s :     3.052424
      pz      :     0.996573  p :     2.767334
      px      :     0.789843
      py      :     0.980917
      dz2     :     0.006375  d :     0.068500
      dxz     :     0.016927
      dyz     :     0.016708
      dx2y2   :     0.016531
      dxy     :     0.011959

 14 C s       :     3.207760  s :     3.207760
      pz      :     0.946133  p :     2.719464
      px      :     0.869938
      py      :     0.903393
      dz2     :     0.005899  d :     0.058973
      dxz     :     0.006954
      dyz     :     0.012494
      dx2y2   :     0.017969
      dxy     :     0.015658

 15 C s       :     3.194237  s :     3.194237
      pz      :     0.959636  p :     2.832061
      px      :     0.982740
      py      :     0.889685
[...]
 95:   1363.89   0.015203   76.83  0.003479  (-0.052018  0.027156  0.005936)
 96:   1368.49   0.002239   11.32  0.000511  (-0.001457 -0.022217 -0.003857)
 97:   1374.81   0.000393    1.99  0.000089  (-0.003851  0.003201  0.008005)
 98:   1388.34   0.001393    7.04  0.000313  (-0.014482  0.010088  0.001272)
 99:   1394.04   0.000680    3.44  0.000152  (-0.007284  0.008878  0.004506)
100:   1399.18   0.009823   49.64  0.002191  ( 0.037582  0.013090  0.024639)
101:   1408.58   0.010081   50.95  0.002233  (-0.024042  0.040676 -0.000895)
102:   1412.68   0.000600    3.03  0.000133  (-0.008174  0.003655 -0.007236)
103:   1416.93   0.023939  120.98  0.005272  ( 0.018216  0.065419  0.025706)
104:   1423.42   0.000341    1.73  0.000075  (-0.001712 -0.008375 -0.001332)
105:   1441.72   0.005403   27.31  0.001170  (-0.017863  0.005895  0.028561)
106:   1453.61   0.007020   35.48  0.001507  (-0.034456  0.016160  0.007669)
107:   1479.24   0.000024    0.12  0.000005  ( 0.000336 -0.001455 -0.001711)
108:   1485.84   0.006033   30.49  0.001267  ( 0.008752 -0.030077  0.016909)
109:   1497.85   0.001892    9.56  0.000394  (-0.008113  0.008551  0.015978)
110:   1498.86   0.014258   72.06  0.002969  (-0.038236 -0.038084  0.007497)
111:   1499.47   0.005360   27.09  0.001116  (-0.021986 -0.008426 -0.023688)
112:   1500.52   0.004696   23.73  0.000977  (-0.023381 -0.018261  0.009822)
113:   1507.80   0.003200   16.17  0.000662  (-0.000809  0.025644 -0.001988)
114:   1524.03   0.001795    9.07  0.000368  ( 0.019019 -0.001659 -0.001759)
115:   1537.66   0.005656   28.58  0.001148  (-0.003693  0.031958  0.010629)
116:   1565.89   0.090745  458.59  0.018085  (-0.030999  0.129386  0.019566)
117:   1592.56   0.114216  577.20  0.022381  ( 0.021930 -0.146866 -0.018169)
118:   1656.61   0.000568    2.87  0.000107  (-0.007814 -0.006768 -0.000242)
119:   1734.57   0.119603  604.43  0.021518  ( 0.042570  0.140344  0.002989)
120:   1752.73   0.064558  326.25  0.011494  (-0.104558  0.006890  0.022675)
121:   2917.07   0.001864    9.42  0.000199  (-0.002541  0.012519 -0.006024)
122:   2942.94   0.012198   61.64  0.001293  (-0.000428 -0.021260  0.029004)
123:   2986.25   0.005581   28.21  0.000583  ( 0.000204 -0.024140  0.000681)
124:   2998.76   0.003687   18.64  0.000384  ( 0.006030  0.018515 -0.002140)
125:   3000.03   0.009528   48.15  0.000991  (-0.006563  0.030703  0.002306)
126:   3014.61   0.006315   31.91  0.000654  ( 0.023594  0.005525 -0.008154)
127:   3047.25   0.005770   29.16  0.000591  ( 0.007050  0.000694  0.023253)
128:   3048.70   0.000152    0.77  0.000016  ( 0.001286 -0.000652  0.003675)
129:   3063.35   0.001706    8.62  0.000174  ( 0.005667  0.000636 -0.011885)
130:   3077.84   0.003340   16.88  0.000339  ( 0.004433 -0.017544 -0.003340)
131:   3096.22   0.003913   19.78  0.000394  (-0.018928 -0.002848  0.005296)
132:   3101.33   0.002553   12.90  0.000257  (-0.015002 -0.003634  0.004314)
133:   3134.79   0.000278    1.41  0.000028  ( 0.002912 -0.001933 -0.003936)
134:   3156.16   0.001221    6.17  0.000121  ( 0.007373  0.007956 -0.001742)
135:   3176.41   0.000909    4.59  0.000089  (-0.007754 -0.004952 -0.002163)
136:   3392.79   0.110595  558.90  0.010172  (-0.100453 -0.006936 -0.005775)
137:   3538.44   0.011422   57.72  0.001007  ( 0.015017 -0.027370 -0.005714)
138:   3663.25   0.022450  113.45  0.001912  (-0.037058  0.002217 -0.023113)
139:   3672.03   0.008423   42.56  0.000716  (-0.023730  0.003702  0.011789)
140:   3737.84   0.004605   23.27  0.000384  (-0.009440 -0.013942 -0.010048)

* The epsilon (eps) is given for a Dirac delta lineshape.
** The dipole moment derivative (T) already includes vibrational overlap.

The first frequency considered to be a vibration is 6
The total number of vibrations considered is 135


--------------------------
THERMOCHEMISTRY AT 298.15K
--------------------------

Temperature         ...   298.15 K
Pressure            ...     1.00 atm
Total Mass          ...   376.37 AMU
Quasi RRHO          ...     True
Cut-Off Frequency   ...     1.00 cm^-1

Throughout the following assumptions are being made:
  (1) The electronic state is orbitally nondegenerate
  (2) There are no thermally accessible electronically excited states
  (3) Hindered rotations indicated by low frequency modes are not
      treated as such but are treated as vibrations and this may
      cause some error
  (4) All equations used are the standard statistical mechanics
      equations for an ideal gas
  (5) All vibrations are strictly harmonic

freq.      21.80  E(vib)   ...       0.56 
freq.      26.85  E(vib)   ...       0.55 
freq.      39.23  E(vib)   ...       0.54 
freq.      56.11  E(vib)   ...       0.52 
freq.      61.38  E(vib)   ...       0.51 
freq.      72.32  E(vib)   ...       0.50 
freq.      85.96  E(vib)   ...       0.48 
freq.     108.57  E(vib)   ...       0.45 
freq.     116.89  E(vib)   ...       0.44 
freq.     122.52  E(vib)   ...       0.43 
freq.     127.09  E(vib)   ...       0.43 
freq.     146.01  E(vib)   ...       0.41 
freq.     150.29  E(vib)   ...       0.40 
freq.     170.95  E(vib)   ...       0.38 
freq.     186.06  E(vib)   ...       0.37 
freq.     193.58  E(vib)   ...       0.36 
freq.     223.15  E(vib)   ...       0.33 
freq.     242.25  E(vib)   ...       0.31 
freq.     267.87  E(vib)   ...       0.29 
freq.     287.33  E(vib)   ...       0.27 
freq.     296.55  E(vib)   ...       0.27 
freq.     309.02  E(vib)   ...       0.26 
freq.     311.29  E(vib)   ...       0.25 
freq.     316.50  E(vib)   ...       0.25 
freq.     337.35  E(vib)   ...       0.24 
freq.     339.16  E(vib)   ...       0.23 
freq.     359.69  E(vib)   ...       0.22 
freq.     363.39  E(vib)   ...       0.22 
freq.     400.57  E(vib)   ...       0.19 
freq.     435.36  E(vib)   ...       0.17 
freq.     440.70  E(vib)   ...       0.17 
freq.     452.42  E(vib)   ...       0.16 
freq.     477.17  E(vib)   ...       0.15 
freq.     492.42  E(vib)   ...       0.14 
freq.     500.69  E(vib)   ...       0.14 
freq.     508.72  E(vib)   ...       0.14 
freq.     526.95  E(vib)   ...       0.13 
freq.     537.93  E(vib)   ...       0.12 
freq.     564.64  E(vib)   ...       0.11 
freq.     568.49  E(vib)   ...       0.11 
freq.     573.66  E(vib)   ...       0.11 
freq.     590.08  E(vib)   ...       0.10 
freq.     603.01  E(vib)   ...       0.10 
freq.     621.19  E(vib)   ...       0.09 
freq.     639.85  E(vib)   ...       0.09 
freq.     669.08  E(vib)   ...       0.08 
freq.     671.14  E(vib)   ...       0.08 
freq.     692.42  E(vib)   ...       0.07 
freq.     705.39  E(vib)   ...       0.07 
freq.     719.25  E(vib)   ...       0.07 
freq.     748.98  E(vib)   ...       0.06 
freq.     756.17  E(vib)   ...       0.06 
freq.     777.55  E(vib)   ...       0.05 
freq.     783.24  E(vib)   ...       0.05 
freq.     834.30  E(vib)   ...       0.04 
freq.     848.32  E(vib)   ...       0.04 
freq.     864.32  E(vib)   ...       0.04 
freq.     871.29  E(vib)   ...       0.04 
freq.     884.14  E(vib)   ...       0.04 
freq.     900.25  E(vib)   ...       0.03 
freq.     933.55  E(vib)   ...       0.03 
freq.     991.93  E(vib)   ...       0.02 
freq.    1006.57  E(vib)   ...       0.02 
freq.    1017.24  E(vib)   ...       0.02 
freq.    1026.50  E(vib)   ...       0.02 
freq.    1035.19  E(vib)   ...       0.02 
freq.    1039.08  E(vib)   ...       0.02 
freq.    1044.88  E(vib)   ...       0.02 
freq.    1047.95  E(vib)   ...       0.02 
freq.    1060.39  E(vib)   ...       0.02 
freq.    1068.52  E(vib)   ...       0.02 
freq.    1089.78  E(vib)   ...       0.02 
freq.    1091.85  E(vib)   ...       0.02 
freq.    1123.28  E(vib)   ...       0.01 
freq.    1155.38  E(vib)   ...       0.01 
freq.    1167.92  E(vib)   ...       0.01 
freq.    1188.23  E(vib)   ...       0.01 
freq.    1192.64  E(vib)   ...       0.01 
freq.    1227.06  E(vib)   ...       0.01 
freq.    1250.22  E(vib)   ...       0.01 
freq.    1257.37  E(vib)   ...       0.01 
freq.    1275.77  E(vib)   ...       0.01 
freq.    1292.95  E(vib)   ...       0.01 
freq.    1313.94  E(vib)   ...       0.01 
freq.    1328.85  E(vib)   ...       0.01 
freq.    1334.21  E(vib)   ...       0.01 
freq.    1339.18  E(vib)   ...       0.01 
freq.    1348.13  E(vib)   ...       0.01 
freq.    1363.38  E(vib)   ...       0.01 
freq.    1363.89  E(vib)   ...       0.01 
freq.    1368.49  E(vib)   ...       0.01 
freq.    1374.81  E(vib)   ...       0.01 
freq.    1388.34  E(vib)   ...       0.00 
freq.    1394.04  E(vib)   ...       0.00 
freq.    1399.18  E(vib)   ...       0.00 
freq.    1408.58  E(vib)   ...       0.00 
freq.    1412.68  E(vib)   ...       0.00 
freq.    1416.93  E(vib)   ...       0.00 
freq.    1423.42  E(vib)   ...       0.00 
freq.    1441.72  E(vib)   ...       0.00 
freq.    1453.61  E(vib)   ...       0.00 
freq.    1479.24  E(vib)   ...       0.00 
freq.    1485.84  E(vib)   ...       0.00 
freq.    1497.85  E(vib)   ...       0.00 
freq.    1498.86  E(vib)   ...       0.00 
freq.    1499.47  E(vib)   ...       0.00 
freq.    1500.52  E(vib)   ...       0.00 
freq.    1507.80  E(vib)   ...       0.00 
freq.    1524.03  E(vib)   ...       0.00 
freq.    1537.66  E(vib)   ...       0.00 
freq.    1565.89  E(vib)   ...       0.00 
freq.    1592.56  E(vib)   ...       0.00 
freq.    1656.61  E(vib)   ...       0.00 
freq.    1734.57  E(vib)   ...       0.00 
freq.    1752.73  E(vib)   ...       0.00 
freq.    2917.07  E(vib)   ...       0.00 
freq.    2942.94  E(vib)   ...       0.00 
freq.    2986.25  E(vib)   ...       0.00 
freq.    2998.76  E(vib)   ...       0.00 
freq.    3000.03  E(vib)   ...       0.00 
freq.    3014.61  E(vib)   ...       0.00 
freq.    3047.25  E(vib)   ...       0.00 
freq.    3048.70  E(vib)   ...       0.00 
freq.    3063.35  E(vib)   ...       0.00 
freq.    3077.84  E(vib)   ...       0.00 
freq.    3096.22  E(vib)   ...       0.00 
freq.    3101.33  E(vib)   ...       0.00 
freq.    3134.79  E(vib)   ...       0.00 
freq.    3156.16  E(vib)   ...       0.00 
freq.    3176.41  E(vib)   ...       0.00 
freq.    3392.79  E(vib)   ...       0.00 
freq.    3538.44  E(vib)   ...       0.00 
freq.    3663.25  E(vib)   ...       0.00 
freq.    3672.03  E(vib)   ...       0.00 
freq.    3737.84  E(vib)   ...       0.00 

------------
INNER ENERGY
------------

The inner energy is: U= E(el) + E(ZPE) + E(vib) + E(rot) + E(trans)
    E(el)   - is the total energy from the electronic structure calculation
              = E(kin-el) + E(nuc-el) + E(el-el) + E(nuc-nuc)
    E(ZPE)  - the the zero temperature vibrational energy from the frequency calculation
    E(vib)  - the the finite temperature correction to E(ZPE) due to population
              of excited vibrational states
    E(rot)  - is the rotational thermal energy
    E(trans)- is the translational thermal energy

Summary of contributions to the inner energy U:
Electronic energy                ...  -1329.66217419 Eh
Zero point energy                ...      0.36919116 Eh     231.67 kcal/mol
Thermal vibrational correction   ...      0.02235499 Eh      14.03 kcal/mol
Thermal rotational correction    ...      0.00141627 Eh       0.89 kcal/mol
Thermal translational correction ...      0.00141627 Eh       0.89 kcal/mol
-----------------------------------------------------------------------
Total thermal energy                  -1329.26779549 Eh


Summary of corrections to the electronic energy:
(perhaps to be used in another calculation)
Total thermal correction                  0.02518754 Eh      15.81 kcal/mol
Non-thermal (ZPE) correction              0.36919116 Eh     231.67 kcal/mol
-----------------------------------------------------------------------
Total correction                          0.39437870 Eh     247.48 kcal/mol


--------
ENTHALPY
--------

The enthalpy is H = U + kB*T
                kB is Boltzmann's constant
Total thermal energy              ...  -1329.26779549 Eh 
Thermal Enthalpy correction       ...      0.00094421 Eh       0.59 kcal/mol
-----------------------------------------------------------------------
Total Enthalpy                    ...  -1329.26685128 Eh


Note: Only C1 symmetry has been detected, increase convergence thresholds 
      if your molecule has a higher symmetry. Symmetry factor of 1.0 is   
      used for the rotational entropy correction. 
 

Note: Rotational entropy computed according to Herzberg 
Infrared and Raman Spectra, Chapter V,1, Van Nostrand Reinhold, 1945 
Point Group:  C1, Symmetry Number:   1  
Rotational constants in cm-1:     0.006813     0.004828     0.003033 

Vibrational entropy computed according to the QRRHO of S. Grimme
Chem.Eur.J. 2012 18 9955 using a reference frequency of 100.0 cm-1


-------
ENTROPY
-------

The entropy contributions are T*S = T*(S(el)+S(vib)+S(rot)+S(trans))
     S(el)   - electronic entropy
     S(vib)  - vibrational entropy
     S(rot)  - rotational entropy
     S(trans)- translational entropy
The entropies will be listed as multiplied by the temperature to get
units of energy

Electronic entropy                ...      0.00000000 Eh      0.00 kcal/mol
Vibrational entropy               ...      0.03947714 Eh     24.77 kcal/mol
Rotational entropy                ...      0.01712109 Eh     10.74 kcal/mol
Translational entropy             ...      0.02074837 Eh     13.02 kcal/mol
-----------------------------------------------------------------------
Final entropy term                ...      0.07734660 Eh     48.54 kcal/mol

In case the symmetry of your molecule has not been determined correctly
or in case you have a reason to use a different symmetry number we print 
out the resulting rotational entropy values for sn=1,12:

 non-linear molecules -----------------------------------
|  sn= 1 | S(rot)=       0.01712109 Eh     10.74 kcal/mol|
|  sn= 2 | S(rot)=       0.01646664 Eh     10.33 kcal/mol|
|  sn= 3 | S(rot)=       0.01608381 Eh     10.09 kcal/mol|
|  sn= 4 | S(rot)=       0.01581218 Eh      9.92 kcal/mol|
|  sn= 5 | S(rot)=       0.01560149 Eh      9.79 kcal/mol|
|  sn= 6 | S(rot)=       0.01542935 Eh      9.68 kcal/mol|
|  sn= 7 | S(rot)=       0.01528380 Eh      9.59 kcal/mol|
|  sn= 8 | S(rot)=       0.01515773 Eh      9.51 kcal/mol|
|  sn= 9 | S(rot)=       0.01504652 Eh      9.44 kcal/mol|
|  sn=10 | S(rot)=       0.01494704 Eh      9.38 kcal/mol|
|  sn=11 | S(rot)=       0.01485705 Eh      9.32 kcal/mol|
|  sn=12 | S(rot)=       0.01477489 Eh      9.27 kcal/mol|
 linear molecules ---------------------------------------
|  Dinfh | S(rot)=       0.01080028 Eh      6.78 kcal/mol|
|  Cinfv | S(rot)=       0.01145473 Eh      7.19 kcal/mol|
 --------------------------------------------------------


-------------------
GIBBS FREE ENERGY
-------------------

The Gibbs free energy is G = H - T*S

Total enthalpy                    ...  -1329.26685128 Eh 
Total entropy correction          ...     -0.07734660 Eh    -48.54 kcal/mol
-----------------------------------------------------------------------
Final Gibbs free energy         ...  -1329.34419789 Eh

For completeness - the Gibbs free energy minus the electronic energy
G-E(el)                           ...      0.31797630 Eh    199.53 kcal/mol


Maximum memory used throughout the entire PROP-calculation: 163.0 MB

--------------------------------
SUGGESTED CITATIONS FOR THIS RUN
--------------------------------

Below you find a list of papers that are relevant to this ORCA run
We neither can nor want to force you to cite these papers, but we appreciate if you do
You receive ORCA, which is the product of decades of hard work by many enthusiastic individuals, for free
The only thing we kindly ask in return is that you cite our papers,
We deeply appreciate it, if you show your appreciation for ORCA by not just citing the generic ORCA reference.

Please note that relegating all ORCA citations to the supporting information does *not* help us.
SI sections are not indexed - citations you put there will not count into any citation statistics
But we need these citations in order to attract the funding resources that allow us to do what we are doing

Therefore, if you are a happy ORCA user, please consider citing a few of the papers listed below in the main body of your paper

In addition to the list printed below, the program has created the file m1_00_Vitamin_B2-B97-3C-TZ.bibtex that contains the list in bibtex format
You can import this file easily into all common literature databanks and citation aid programs


List of essential papers. We consider these as the minimum necessary citations

  1. Neese,F.
     Software update: the ORCA program system, version 5.0
     WIRES Comput. Molec. Sci., 2022 12(1)e1606
     doi.org/10.1002/wcms.1606

List of papers to cite with high priority. The work reported in these papers was absolutely
necessary for this run to complete.
Our perspective: the developers of density functionals and basis sets usually get cited in chemistry papers
Good! But without the algorithms to do something with them, the functionals or basis sets would not do anything.
Hence, in our opinion, the algorithm design and method developments papers are equally worthy of getting cited

  1. Neese,F.
     An improvement of the resolution of the identity approximation for the formation of the Coulomb matrix
     J. Comp. Chem., 2003 24(14)1740-1747
     doi.org/10.1002/jcc.10318
  2. Bykov,D.; Petrenko,T.; Izsak,R.; Kossmann,S.; Becker,U.; Valeev,E.; Neese,F.
     Efficient implementation of the analytic second derivatives of Hartree-Fock and hybrid DFT energies: a detailed analysis of different approximations
     Molec. Phys., 2015 113 1961-1977
     doi.org/10.1080/00268976.2015.1025114
  3. Neese,F.
     The SHARK Integral Generation and Digestion System
     J. Comp. Chem., 2022  1-16
     doi.org/10.1002/jcc.26942
  4. Grimme,S.; Antony,J.; Ehrlich,S.; Krieg,H.
     A consistent and accurate ab initio parametrization of density functional dispersion correction (DFT-D) for the 94 elements H-Pu
     J. Chem. Phys., 2010 132 154104
     doi.org/10.1063/1.3382344
  5. Grimme,S.; Ehrlich,S.; Goerigk,L.
     Effect of the damping function in dispersion corrected density functional theory
     J. Comput. Chem., 2011 32(7)1456-1465
     doi.org/10.1002/jcc.21759

List of suggested additional citations. These are papers that are important in the 'surrounding' of 
of this run, or papers that preceded the highly important papers. If you like your results we are grateful for a citation.

  1. Neese,F.
     The ORCA program system
     WIRES Comput. Molec. Sci., 2012 2(1)73-78
     doi.org/10.1002/wcms.81
  2. Neese,F.
     Software update: the ORCA program system, version 4.0
     WIRES Comput. Molec. Sci., 2018 8(1)1-6
     doi.org/10.1002/wcms.1327
  3. Neese,F.; Wennmohs,F.; Becker,U.; Riplinger,C.
     The ORCA quantum chemistry program package
     J. Chem. Phys., 2020 152 Art. No. L224108
     doi.org/10.1063/5.0004608

List of optional additional citations

  1. Neese,F.
     Approximate second-order SCF convergence for spin unrestricted wavefunctions
     Chem. Phys. Lett., 2000 325(1-3)93-98
     doi.org/10.1016/s0009-2614(00)00662-x

Timings for individual modules:

Sum of individual times          ...     1126.414 sec (=  18.774 min)
Startup calculation              ...      102.906 sec (=   1.715 min)   9.1 %
SCF iterations                   ...      351.970 sec (=   5.866 min)  31.2 %
Property integrals               ...      186.299 sec (=   3.105 min)  16.5 %
SCF Response                     ...      275.607 sec (=   4.593 min)  24.5 %
Property calculations            ...       70.235 sec (=   1.171 min)   6.2 %
SCF Gradient evaluation          ...      137.924 sec (=   2.299 min)  12.2 %
Geometry relaxation              ...        1.472 sec (=   0.025 min)   0.1 %
                             ****ORCA TERMINATED NORMALLY****
TOTAL RUN TIME: 0 days 0 hours 18 minutes 57 seconds 829 msec
