
                                 *****************
                                 * O   R   C   A *
                                 *****************

                                            #,                                       
                                            ###                                      
                                            ####                                     
                                            #####                                    
                                            ######                                   
                                           ########,                                 
                                     ,,################,,,,,                         
                               ,,#################################,,                 
                          ,,##########################################,,             
                       ,#########################################, ''#####,          
                    ,#############################################,,   '####,        
                  ,##################################################,,,,####,       
                ,###########''''           ''''###############################       
              ,#####''   ,,,,##########,,,,          '''####'''          '####       
            ,##' ,,,,###########################,,,                        '##       
           ' ,,###''''                  '''############,,,                           
         ,,##''                                '''############,,,,        ,,,,,,###''
      ,#''                                            '''#######################'''  
     '                                                          ''''####''''         
             ,#######,   #######,   ,#######,      ##                                
            ,#'     '#,  ##    ##  ,#'     '#,    #''#        ,####,   ,####,        
            ##       ##  ##   ,#'  ##            #'  '#       #'       #'  '#        
            ##       ##  #######   ##           ,######,      #####,   #    #        
            '#,     ,#'  ##    ##  '#,     ,#' ,#      #,     #,   #   #,  ,#        
             '#######'   ##     ##  '#######'  #'      '#     '####' # '####'        



                #########################################################
                #                        -***-                          #
                #          Department of theory and spectroscopy        #
                #                                                       #
                #                      Frank Neese                      #
                #                                                       #
                #     Directorship, Architecture, Infrastructure        #
                #                    SHARK, DRIVERS                     #
                #        Core code/Algorithms in most modules           #
                #                                                       #
                #        Max Planck Institute fuer Kohlenforschung      #
                #                Kaiser Wilhelm Platz 1                 #
                #                 D-45470 Muelheim/Ruhr                 #
                #                      Germany                          #
                #                                                       #
                #                  All rights reserved                  #
                #                        -***-                          #
                #########################################################


                         Program Version 6.0.1  -  RELEASE   -


 With contributions from (in alphabetic order):
[Max-Planck-Institut fuer Kohlenforschung]                               
  Daniel Aravena         : Magnetic Suceptibility                        
  Michael Atanasov       : Ab Initio Ligand Field Theory (pilot matlab implementation)
  Alexander A. Auer      : GIAO ZORA, VPT2 properties, NMR spectrum      
  Ute Becker             : All parallelization in ORCA, NUMFREQ, NUMCALC 
  Giovanni Bistoni       : ED, misc. LED, open-shell LED, HFLD           
  Martin Brehm           : Molecular dynamics                            
  Dmytro Bykov           : pre 5.0 version of the SCF Hessian            
  Marcos Casanova-Páez   : Triplet and SCS-CIS(D). UHF-(DLPNO)-IP/EA/STEOM-CCSD. UHF-CVS-IP/STEOM-CCSD   
  Vijay G. Chilkuri      : MRCI spin determinant printing, contributions to CSF-ICE 
  Pauline Colinet        : FMM embedding                                 
  Dipayan Datta          : RHF DLPNO-CCSD density                        
  Achintya Kumar Dutta   : EOM-CC, STEOM-CC                              
  Nicolas Foglia         : Exact transition moments, OPA infrastructure, MCD improvements    
  Dmitry Ganyushin       : Spin-Orbit,Spin-Spin,Magnetic field MRCI      
  Miquel Garcia-Rates    : C-PCM and meta-GGA Hessian, CCSD/C-PCM, Gaussian charge scheme 
  Tiago L. C. Gouveia    : GS-ROHF, GS-ROCIS                             
  Yang Guo               : DLPNO-NEVPT2, F12-NEVPT2, CIM, IAO-localization        
  Andreas Hansen         : Spin unrestricted coupled pair/coupled cluster methods 
  Ingolf Harden          : AUTO-CI MPn and infrastructure                
  Benjamin Helmich-Paris : MC-RPA, TRAH-(SCF,CASSCF), AVAS, COSX integrals, SCF dyn. polar. 
  Lee Huntington         : MR-EOM, pCC                                   
  Robert Izsak           : Overlap fitted RIJCOSX, COSX-SCS-MP3, EOM     
  Riya Kayal             : Wick's Theorem for AUTO-CI, AUTO-CI UHF-CCSDT 
  Emily Kempfer          : AUTO-CI, RHF CISDT and CCSDT                  
  Christian Kollmar      : KDIIS, OOCD, Brueckner-CCSD(T), CCSD density, CASPT2, CASPT2-K, improved NEVPT2 
  Axel Koslowski         : Symmetry handling                             
  Simone Kossmann        : meta-GGA functionals, TD-DFT gradient, OOMP2, (MP2 Hessian; deprecated post 5.0) 
  Lucas Lang             : DCDCAS                                        
  Marvin Lechner         : AUTO-CI (C++ implementation), FIC-MRCC        
  Spencer Leger          : CASSCF response                               
  Dagmar Lenk            : GEPOL surface, SMD, ORCA-2-JSON               
  Dimitrios Liakos       : Extrapolation schemes; Compound Job, initial MDCI parallelization 
  Dimitrios Manganas     : Further ROCIS development; embedding schemes. LFT, Crystal Embedding 
  Dimitrios Pantazis     : SARC Basis sets                               
  Anastasios Papadopoulos: AUTO-CI, single reference methods and gradients 
  Taras Petrenko         : pre 6.0 DFT Hessian and TD-DFT gradient, (ASA, deprecated), ECA, 1-Electron XAS/XES, NRVS 
  Peter Pinski           : DLPNO-MP2, DLPNO-MP2 Gradient                 
  Christoph Reimann      : Effective Core Potentials                     
  Marius Retegan         : Local ZFS, SOC                                
  Christoph Riplinger    : Optimizer, TS searches, QM/MM, DLPNO-CCSD(T), (RO)-DLPNO pert. Triples 
  Michael Roemelt        : Original ROCIS implementation                 
  Masaaki Saitow         : Open-shell DLPNO-CCSD energy and density      
  Barbara Sandhoefer     : DKH picture change effects                    
  Kantharuban Sivalingam : CASSCF convergence/infrastructure, NEVPT2 and variants, FIC-MRCI 
  Bernardo de Souza      : ESD, SOC TD-DFT                               
  Georgi L. Stoychev     : AutoAux, RI-MP2 NMR, DLPNO-MP2 response, X2C  
  Van Anh Tran           : RI-MP2 g-tensors                              
  Willem Van den Heuvel  : Paramagnetic NMR                              
  Zikuan Wang            : NOTCH, Electric field optimization            
  Frank Wennmohs         : Technical directorship and infrastructure     
  Hang Xu                : AUTO-CI-Response properties                   
                                                                         
[FACCTs GmbH]                                                            
  Markus Bursch, Miquel Garcia-Rates, Christoph Riplinger, Bernardo de Souza, Georgi L. Stoychev 
                                                                 
  APM, Basis sets (HGBS, AHGBS, def-TZVP (Ac-Lr), def2-XVPD (La-Lu)), CI-OPT, improved COSX, DLPNO-Multilevel,           
  DOCKER, DRACO, updates on ESD, GOAT, IRC, LR-CPCM, MBIS, meta-GGA TD-DFT gradient, ML-optimized integration grids, 
  MM, NACMEs, nearIR, NEB, NEB-TS, NL-DFT gradient (VV10), 2- and 3-layer-ONIOM, interface openCOSMO-RS, QMMM,   
  Crystal-QMMM, SF, symmetry and pop. for TD-DFT, r2SCAN hybrids, SOLVATOR                                   
                                                                         
[Other institutions]                                                     
  V. Asgeirsson          : NEB                                           
  Christoph Bannwarth    : sTDA-DFT, sTD-DFT, PBEh-3c, B97-3c, D3        
  Sebastian Ehlert       : rSCAN, r2SCAN, r2SCAN-3c, D4, dhf basis sets  
  Marvin Friede          : D4 for Fr, Ra, Ac-Lr                          
  Lars Goerigk           : TD-DFT with DH, B97 family of functionals     
  Stefan Grimme          : VdW corrections, initial TS optimization, DFT functionals, gCP, sTDA/sTD-DF 
  Waldemar Hujo          : DFT-NL                                        
  H. Jonsson             : NEB                                           
  Holger Kruse           : gCP                                           
  Marcel Mueller         : wB97X-3c, vDZP basis set                      
  Hagen Neugebauer       : wr2SCAN                                       
  Tobias Risthaus        : range-separated hybrid DFT                    
  Lukas Wittmann         : regularized MP2, r2SCAN double-hybrids, wr2SCAN        
                                                                         
We gratefully acknowledge several colleagues who have allowed us to      
interface, adapt or use parts of their codes:                            
  Ed Valeev, F. Pavosevic, A. Kumar             : LibInt (2-el integral package), F12 methods 
  Garnet Chan, S. Sharma, J. Yang, R. Olivares  : DMRG                   
  Ulf Ekstrom                                   : XCFun DFT Library      
  Mihaly Kallay                                 : mrcc  (arbitrary order and MRCC methods)
  Frank Weinhold                                : gennbo (NPA and NBO analysis)           
  Simon Mueller                                 : openCOSMO-RS                            
  Christopher J. Cramer and Donald G. Truhlar   : smd solvation model                     
  S Lehtola, MJT Oliveira, MAL Marques          : LibXC Library                           
  Liviu Ungur et al                             : ANISO software                          


 Your calculation uses the libint2 library for the computation of 2-el integrals
 For citations please refer to: http://libint.valeyev.net

 Your ORCA version has been built with support for libXC version: 6.2.2
 For citations please refer to: https://libxc.gitlab.io

 This ORCA versions uses:
   CBLAS   interface :  Fast vector & matrix operations
   LAPACKE interface :  Fast linear algebra routines
   SCALAPACK package :  Parallel linear algebra routines
   Shared memory     :  Shared parallel matrices
   BLAS/LAPACK       :  OpenBLAS 0.3.27  USE64BITINT DYNAMIC_ARCH NO_AFFINITY Zen SINGLE_THREADED
        Core in use  :  Zen
   Copyright (c) 2011-2014, The OpenBLAS Project


NOTE: MaxCore=6000 MB was set to SCF,MP2,MDCI,CIPSI,MRCI and CIS
      => If you want to overwrite this, your respective input block should be placed after the MaxCore statement
Your calculation utilizes the atom-pairwise dispersion correction
with the Becke-Johnson damping scheme (D3BJ)


Your calculation employs the composite approach B97-3c by Grimme and coworkers.
For the correct reference, please check the publication list of the Grimme group:
http://www.thch.uni-bonn.de/tc/index.php?section=publikationen&subsection=grimme#2017
   

XCFun DFT library Copyright 2009-2010 Ulf Ekstrom and contributors.
See http://admol.org/xcfun for more information.
This is free software; see the source code for copying conditions.
There is ABSOLUTELY NO WARRANTY; not even for MERCHANTABILITY or FITNESS FOR A PARTICULAR PURPOSE.
For details see the documentation.
Scientific users of this library should cite U. Ekstrom, L. Visscher, R. Bast, A. J. Thorvaldsen and K. Ruud;
J.Chem.Theor.Comp. 2010, DOI: 10.1021/ct100117s
XCFun Version 0.99 

================================================================================

----- Orbital basis set information -----
Your calculation utilizes the basis: def2-mTZVP
----- AuxJ basis set information -----
Your calculation utilizes the basis: def2-mTZVP/J
================================================================================
                                        WARNINGS
                       Please study these warnings very carefully!
================================================================================


WARNING: Geometry Optimization
  ===> : Switching off AutoStart
         For restart on a previous wavefunction, please use MOREAD

================================================================================
                                       INPUT FILE
================================================================================
NAME = m1_00_Vitamin_B9-B97-3C-TZ.inp
|  1> %pal nprocs 16 end
|  2> %MaxCore 6000
|  3> # put your comments here
|  4> ! B97-3C  OPT  FREQ DEFGRID3 NOTRAH CHELPG
|  5> %scf MaxIter 800 end
|  6> %output
|  7> Print [P_Hirshfeld] 1
|  8> end
|  9> %geom
| 10> MaxIter 3000
| 11>  TolE 1e-6 #TolE 5e-6 Energy change (a.u.)
| 12>  TolRMSG 3e-5 #TolRMSG 1e-4 RMS gradient (a.u.)
| 13>  TolMaxG 1e-4 #TolMaxG 3e-3 Max. element of gradient (a.u.)
| 14>  TolRMSD 2e-3 #TolRMSD 2e-3 RMS displacement (a.u.)
| 15>  TolMaxD 4e-3 #TolMaxD 4e-3 Max. displacement (a.u.)
| 16> end
| 17> * xyz 0 1
| 18>  O      8.049100000      1.418200000     -1.527700000
| 19>  O      4.412200000      1.620000000      1.956800000
| 20>  O      6.010800000      1.325200000     -2.521100000
| 21>  O      6.804200000     -4.083800000     -0.664900000
| 22>  O      7.694500000     -3.094300000      1.172400000
| 23>  O     -5.909300000     -2.920400000      0.412200000
| 24>  N      4.760800000      0.827600000     -0.194900000
| 25>  N     -1.647600000      0.908100000      0.104600000
| 26>  N     -4.553600000     -0.571000000      0.607400000
| 27>  N     -5.906900000      1.750300000     -0.217500000
| 28>  N     -7.772600000     -1.836000000     -0.439500000
| 29>  N     -7.809700000      0.497800000     -0.769000000
| 30>  N     -9.685900000     -0.804200000     -1.304100000
| 31>  C      6.200900000      0.827300000     -0.144600000
| 32>  C      6.774400000     -0.489500000      0.392600000
| 33>  C      6.473600000     -1.740100000     -0.443200000
| 34>  C      3.975900000      1.230200000      0.876900000
| 35>  C      2.506500000      1.146800000      0.675200000
| 36>  C      6.708100000      1.198300000     -1.523000000
| 37>  C     -0.252900000      0.987800000      0.296800000
| 38>  C     -2.571400000      0.728800000      1.181800000
| 39>  C      1.661200000      0.970800000      1.770800000
| 40>  C      1.971900000      1.243600000     -0.609500000
| 41>  C      0.281600000      0.891100000      1.581700000
| 42>  C      0.592200000      1.164000000     -0.798700000
| 43>  C      7.050600000     -3.013800000      0.135500000
| 44>  C     -3.979300000      0.645700000      0.660500000
| 45>  C     -5.814400000     -0.592700000      0.133500000
| 46>  C     -4.643100000      1.784300000      0.256100000
| 47>  C     -6.495700000      0.537800000     -0.276700000
| 48>  C     -6.480500000     -1.896800000      0.057800000
| 49>  C     -8.405600000     -0.661100000     -0.838200000
| 50>  H      6.503800000      1.640000000      0.528100000
| 51>  H      7.863700000     -0.391800000      0.488500000
| 52>  H      6.396500000     -0.651900000      1.410800000
| 53>  H      6.888900000     -1.616300000     -1.449500000
| 54>  H      5.389700000     -1.877500000     -0.524300000
| 55>  H      4.329600000      0.439900000     -1.027600000
| 56>  H     -2.512800000      1.557300000      1.898800000
| 57>  H     -2.352600000     -0.197800000      1.727300000
| 58>  H      2.059200000      0.888800000      2.778900000
| 59>  H      2.591200000      1.412300000     -1.485500000
| 60>  H     -1.986600000      0.979800000     -0.848900000
| 61>  H     -0.339600000      0.754000000      2.461600000
| 62>  H      0.187400000      1.247700000     -1.804100000
| 63>  H     -4.187600000      2.767000000      0.296100000
| 64>  H      8.374100000      1.673800000     -2.417300000
| 65>  H     -8.290700000     -2.706100000     -0.518100000
| 66>  H      7.192500000     -4.908400000     -0.302200000
| 67>  H    -10.223700000     -0.003100000     -1.616200000
| 68>  H    -10.133400000     -1.713000000     -1.350900000
| 69> *
| 70> 
| 71> 
| 72> 
| 73> 
| 74>                          ****END OF INPUT****
================================================================================

                       *****************************
                       * Geometry Optimization Run *
                       *****************************

Geometry optimization settings:
Update method            Update   .... BFGS
Choice of coordinates    CoordSys .... (2022) Redundant Internals
Initial Hessian          InHess   .... Almloef's Model
Max. no of cycles        MaxIter  .... 3000

Convergence Tolerances:
Energy Change            TolE     ....  1.0000e-06 Eh
Max. Gradient            TolMAXG  ....  1.0000e-04 Eh/bohr
RMS Gradient             TolRMSG  ....  3.0000e-05 Eh/bohr
Max. Displacement        TolMAXD  ....  4.0000e-03 bohr
RMS Displacement         TolRMSD  ....  2.0000e-03 bohr
Strict Convergence                .... False

------------------------------------------------------------------------------
                        ORCA OPTIMIZATION COORDINATE SETUP
------------------------------------------------------------------------------

The optimization will be done in redundant internal coordinates (2022)
Making redundant internal coordinates   ...  (2022 redundants) done
Evaluating the initial hessian          ...  (Almloef) done
Evaluating the coordinates              ...  done
Calculating the B-matrix                .... done
Calculating the G-matrix                .... done
Diagonalizing the G-matrix              .... done
Small eigenvalue found = 1.052e-03
Small eigenvalue found = 1.403e-03
Small eigenvalue found = 4.971e-03
Small eigenvalue found = 5.540e-03
Small eigenvalue found = 7.329e-03
Small eigenvalue found = 1.640e-02
Small eigenvalue found = 2.232e-02
Small eigenvalue found = 2.822e-02
The first mode is                       ....  107
The number of degrees of freedom        ....  147

    -----------------------------------------------------------------
                    Redundant Internal Coordinates


    -----------------------------------------------------------------
         Definition                    Initial Value    Approx d2E/dq
    -----------------------------------------------------------------
      1. B(C  13,N   6)                  1.4410         0.464027   
      2. B(C  14,C  13)                  1.5334         0.368879   
      3. B(C  15,C  14)                  1.5340         0.368175   
      4. B(C  16,N   6)                  1.3881         0.563451   
      5. B(C  16,O   1)                  1.2282         1.013935   
      6. B(C  17,C  16)                  1.4855         0.439886   
      7. B(C  18,O   0)                  1.3589         0.627284   
      8. B(C  18,O   2)                  1.2241         1.029163   
      9. B(C  18,C  13)                  1.5149         0.394904   
     10. B(C  19,N   7)                  1.4101         0.519698   
     11. B(C  20,N   7)                  1.4304         0.482494   
     12. B(C  21,C  17)                  1.3949         0.613568   
     13. B(C  22,C  17)                  1.3949         0.613751   
     14. B(C  23,C  21)                  1.3948         0.613924   
     15. B(C  23,C  19)                  1.3950         0.613438   
     16. B(C  24,C  22)                  1.3949         0.613683   
     17. B(C  24,C  19)                  1.3948         0.613962   
     18. B(C  25,C  15)                  1.5133         0.397183   
     19. B(C  25,O   4)                  1.2232         1.032700   
     20. B(C  25,O   3)                  1.3588         0.627628   
     21. B(C  26,C  20)                  1.5036         0.411606   
     22. B(C  26,N   8)                  1.3465         0.656620   
     23. B(C  27,N   8)                  1.3471         0.655127   
     24. B(C  28,C  26)                  1.3786         0.651482   
     25. B(C  28,N   9)                  1.3501         0.648049   
     26. B(C  29,C  27)                  1.3822         0.642970   
     27. B(C  29,N  11)                  1.4038         0.532004   
     28. B(C  29,N   9)                  1.3492         0.650079   
     29. B(C  30,C  27)                  1.4663         0.472034   
     30. B(C  30,N  10)                  1.3858         0.568234   
     31. B(C  30,O   5)                  1.2246         1.027480   
     32. B(C  31,N  12)                  1.3699         0.602415   
     33. B(C  31,N  11)                  1.3050         0.764791   
     34. B(C  31,N  10)                  1.3929         0.553762   
     35. B(H  32,C  13)                  1.0976         0.350168   
     36. B(H  33,C  14)                  1.0979         0.349839   
     37. B(H  34,C  14)                  1.0981         0.349490   
     38. B(H  35,C  15)                  1.0956         0.352708   
     39. B(H  36,C  15)                  1.0956         0.352794   
     40. B(H  37,O   2)                  2.4168         0.002465   
     41. B(H  37,N   6)                  1.0147         0.425287   
     42. B(H  38,C  20)                  1.0972         0.350649   
     43. B(H  39,C  20)                  1.0973         0.350593   
     44. B(H  40,C  21)                  1.0869         0.364198   
     45. B(H  41,C  22)                  1.0860         0.365448   
     46. B(H  42,N   7)                  1.0145         0.425603   
     47. B(H  43,C  23)                  1.0858         0.365731   
     48. B(H  44,C  24)                  1.0871         0.364011   
     49. B(H  45,C  28)                  1.0839         0.368298   
     50. B(H  46,O   0)                  0.9810         0.481367   
     51. B(H  47,N  10)                  1.0157         0.423716   
     52. B(H  48,O   3)                  0.9810         0.481413   
     53. B(H  49,C  19)                 10.2009         0.000000   
     54. B(H  49,N  12)                  1.0141         0.426241   
     55. B(H  50,N  12)                  1.0141         0.426266   
     56. A(C  18,O   0,H  46)          111.8531         0.365983   
     57. A(C  25,O   3,H  48)          111.8621         0.366024   
     58. A(C  13,N   6,H  37)          116.9528         0.340562   
     59. A(C  13,N   6,C  16)          122.5612         0.400057   
     60. A(C  16,N   6,H  37)          120.2753         0.351863   
     61. A(C  19,N   7,H  42)          117.0394         0.347141   
     62. A(C  20,N   7,H  42)          120.0568         0.342837   
     63. A(C  19,N   7,C  20)          122.9033         0.397128   
     64. A(C  26,N   8,C  27)          115.3170         0.437164   
     65. A(C  28,N   9,C  29)          116.5225         0.435523   
     66. A(C  31,N  10,H  47)          117.9451         0.350613   
     67. A(C  30,N  10,H  47)          117.7601         0.352146   
     68. A(C  30,N  10,C  31)          124.2948         0.413376   
     69. A(C  29,N  11,C  31)          118.1215         0.432803   
     70. A(C  31,N  12,H  50)          121.4478         0.356010   
     71. A(H  49,N  12,H  50)          117.3691         0.301805   
     72. A(C  31,N  12,H  49)          121.1831         0.356007   
     73. A(C  14,C  13,H  32)          108.5363         0.322165   
     74. A(C  18,C  13,H  32)          106.4949         0.325791   
     75. A(N   6,C  13,C  14)          112.7167         0.373963   
     76. A(C  14,C  13,C  18)          113.8188         0.366027   
     77. A(N   6,C  13,C  18)          107.6255         0.378394   
     78. A(N   6,C  13,H  32)          107.2795         0.332575   
     79. A(C  15,C  14,H  34)          108.4907         0.321962   
     80. A(H  33,C  14,H  34)          105.8792         0.288170   
     81. A(C  13,C  14,H  33)          108.9813         0.322116   
     82. A(C  13,C  14,C  15)          115.8411         0.361667   
     83. A(C  13,C  14,H  34)          108.8512         0.322063   
     84. A(C  15,C  14,H  33)          108.3432         0.322015   
     85. A(H  35,C  15,H  36)          108.7347         0.288964   
     86. A(C  14,C  15,H  36)          109.6688         0.322459   
     87. A(C  14,C  15,C  25)          113.7695         0.366268   
     88. A(C  25,C  15,H  36)          107.4557         0.326501   
     89. A(C  25,C  15,H  35)          107.5657         0.326488   
     90. A(C  14,C  15,H  35)          109.5107         0.322446   
     91. A(N   6,C  16,C  17)          115.9879         0.398868   
     92. A(O   1,C  16,C  17)          119.2472         0.442938   
     93. A(O   1,C  16,N   6)          124.7551         0.460257   
     94. A(C  21,C  17,C  22)          119.9928         0.432464   
     95. A(C  16,C  17,C  22)          120.0175         0.407545   
     96. A(C  16,C  17,C  21)          119.9896         0.407523   
     97. A(O   0,C  18,O   2)          122.8551         0.470671   
     98. A(O   2,C  18,C  13)          125.2087         0.435569   
     99. A(O   0,C  18,C  13)          111.9114         0.398829   
    100. A(C  23,C  19,C  24)          120.0033         0.432474   
    101. A(N   7,C  19,C  24)          119.9579         0.417099   
    102. A(N   7,C  19,C  23)          120.0388         0.417036   
    103. A(N   7,C  20,H  38)          111.2830         0.334812   
    104. A(N   7,C  20,C  26)          110.5223         0.383712   
    105. A(H  38,C  20,H  39)          107.5848         0.288417   
    106. A(C  26,C  20,H  39)          108.2037         0.328087   
    107. A(N   7,C  20,H  39)          110.5769         0.334803   
    108. A(C  26,C  20,H  38)          108.5596         0.328096   
    109. A(C  17,C  21,H  40)          121.0699         0.352962   
    110. A(C  23,C  21,H  40)          118.9223         0.352997   
    111. A(C  17,C  21,C  23)          120.0072         0.432486   
    112. A(C  17,C  22,C  24)          120.0039         0.432479   
    113. A(C  24,C  22,H  41)          117.6138         0.353178   
    114. A(C  17,C  22,H  41)          122.3544         0.353185   
    115. A(C  21,C  23,H  43)          117.5967         0.353248   
    116. A(C  19,C  23,H  43)          122.4098         0.353200   
    117. A(C  19,C  23,C  21)          119.9935         0.432470   
    118. A(C  19,C  24,C  22)          119.9991         0.432505   
    119. A(C  22,C  24,H  44)          119.3000         0.352943   
    120. A(C  19,C  24,H  44)          120.6995         0.352970   
    121. A(O   4,C  25,C  15)          125.4685         0.436290   
    122. A(O   3,C  25,C  15)          111.6161         0.399272   
    123. A(O   3,C  25,O   4)          122.8863         0.471015   
    124. A(C  20,C  26,C  28)          120.4578         0.407056   
    125. A(N   8,C  26,C  28)          121.9624         0.439609   
    126. A(N   8,C  26,C  20)          117.5798         0.405000   
    127. A(C  29,C  27,C  30)          119.2212         0.416096   
    128. A(N   8,C  27,C  30)          117.2358         0.414783   
    129. A(N   8,C  27,C  29)          123.5430         0.438387   
    130. A(C  26,C  28,H  45)          122.3868         0.357247   
    131. A(N   9,C  28,H  45)          115.4157         0.354722   
    132. A(N   9,C  28,C  26)          122.1975         0.438568   
    133. A(N  11,C  29,C  27)          122.8311         0.422306   
    134. A(N   9,C  29,C  27)          120.4576         0.437776   
    135. A(N   9,C  29,N  11)          116.7113         0.420387   
    136. A(N  10,C  30,C  27)          113.7689         0.404458   
    137. A(O   5,C  30,C  27)          121.1023         0.449716   
    138. A(O   5,C  30,N  10)          125.1288         0.462087   
    139. A(N  11,C  31,N  12)          122.5180         0.442613   
    140. A(N  10,C  31,N  12)          115.7195         0.417693   
    141. A(N  10,C  31,N  11)          121.7625         0.435937   
    142. D(C  14,C  13,N   6,H  37)    -86.0443         0.018387   
    143. D(C  18,C  13,N   6,C  16)   -144.9860         0.018387   
    144. D(C  18,C  13,N   6,H  37)     40.2819         0.018387   
    145. D(H  32,C  13,N   6,C  16)    -30.7292         0.018387   
    146. D(C  14,C  13,N   6,C  16)     88.6878         0.018387   
    147. D(C  15,C  14,C  13,N   6)     62.5148         0.010882   
    148. D(C  15,C  14,C  13,H  32)   -178.7993         0.010882   
    149. D(H  33,C  14,C  13,C  18)     62.0200         0.010882   
    150. D(C  15,C  14,C  13,C  18)    -60.4164         0.010882   
    151. D(H  33,C  14,C  13,N   6)   -175.0488         0.010882   
    152. D(H  33,C  14,C  13,H  32)    -56.3629         0.010882   
    153. D(H  35,C  15,C  14,C  13)     60.1220         0.010843   
    154. D(C  25,C  15,C  14,H  34)    -56.7675         0.010843   
    155. D(C  25,C  15,C  14,H  33)     57.7408         0.010843   
    156. D(C  25,C  15,C  14,C  13)   -179.4860         0.010843   
    157. D(H  35,C  15,C  14,H  34)   -177.1596         0.010843   
    158. D(H  35,C  15,C  14,H  33)    -62.6513         0.010843   
    159. D(C  17,C  16,N   6,H  37)     -4.2834         0.025373   
    160. D(C  17,C  16,N   6,C  13)   -178.8456         0.025373   
    161. D(O   1,C  16,N   6,H  37)    174.5678         0.025373   
    162. D(O   1,C  16,N   6,C  13)      0.0056         0.025373   
    163. D(C  22,C  17,C  16,N   6)    -26.9971         0.013203   
    164. D(C  22,C  17,C  16,O   1)    154.0847         0.013203   
    165. D(C  21,C  17,C  16,N   6)    152.9631         0.013203   
    166. D(C  21,C  17,C  16,O   1)    -25.9551         0.013203   
    167. D(O   0,C  18,C  13,H  32)     56.1143         0.011587   
    168. D(O   0,C  18,C  13,C  14)    -63.4327         0.011587   
    169. D(O   0,C  18,C  13,N   6)    170.8934         0.011587   
    170. D(C  13,C  18,O   0,H  46)   -178.9937         0.028919   
    171. D(O   2,C  18,C  13,N   6)     -7.3319         0.011587   
    172. D(O   2,C  18,O   0,H  46)     -0.7199         0.028919   
    173. D(O   2,C  18,C  13,C  14)    118.3420         0.011587   
    174. D(C  24,C  19,N   7,H  42)      0.2910         0.023241   
    175. D(C  24,C  19,N   7,C  20)   -179.9711         0.023241   
    176. D(C  23,C  19,N   7,H  42)   -179.7366         0.023241   
    177. D(C  23,C  19,N   7,C  20)      0.0013         0.023241   
    178. D(H  39,C  20,N   7,C  19)    -58.7154         0.019918   
    179. D(H  38,C  20,N   7,H  42)   -119.4760         0.019918   
    180. D(H  38,C  20,N   7,C  19)     60.7938         0.019918   
    181. D(C  26,C  20,N   7,H  42)      1.2246         0.019918   
    182. D(C  26,C  20,N   7,C  19)   -178.5056         0.019918   
    183. D(H  40,C  21,C  17,C  22)    179.7254         0.026018   
    184. D(H  40,C  21,C  17,C  16)     -0.2347         0.026018   
    185. D(C  23,C  21,C  17,C  22)      0.0245         0.026018   
    186. D(C  23,C  21,C  17,C  16)   -179.9356         0.026018   
    187. D(H  41,C  22,C  17,C  21)    178.0146         0.026034   
    188. D(H  41,C  22,C  17,C  16)     -2.0252         0.026034   
    189. D(C  24,C  22,C  17,C  21)     -0.0200         0.026034   
    190. D(C  24,C  22,C  17,C  16)    179.9402         0.026034   
    191. D(H  43,C  23,C  21,H  40)      0.2979         0.026050   
    192. D(H  43,C  23,C  21,C  17)   -179.9948         0.026050   
    193. D(C  19,C  23,C  21,H  40)   -179.7258         0.026050   
    194. D(C  19,C  23,C  21,C  17)     -0.0185         0.026050   
    195. D(H  43,C  23,C  19,C  24)    179.9831         0.028257   
    196. D(H  43,C  23,C  19,N   7)      0.0107         0.028257   
    197. D(C  21,C  23,C  19,C  24)      0.0079         0.028257   
    198. D(C  21,C  23,C  19,N   7)   -179.9644         0.028257   
    199. D(C  19,C  24,C  22,C  17)      0.0094         0.026028   
    200. D(H  44,C  24,C  19,C  23)   -179.5703         0.028308   
    201. D(H  44,C  24,C  19,N   7)      0.4021         0.028308   
    202. D(C  22,C  24,C  19,C  23)     -0.0034         0.028308   
    203. D(C  19,C  24,C  22,H  41)   -178.1169         0.026028   
    204. D(C  22,C  24,C  19,N   7)    179.9690         0.028308   
    205. D(H  44,C  24,C  22,H  41)      1.4561         0.026028   
    206. D(H  44,C  24,C  22,C  17)    179.5824         0.026028   
    207. D(O   4,C  25,C  15,H  35)    121.9900         0.011715   
    208. D(O   4,C  25,C  15,C  14)      0.5096         0.011715   
    209. D(O   3,C  25,C  15,H  36)     60.8286         0.011715   
    210. D(O   3,C  25,C  15,H  35)    -56.0885         0.011715   
    211. D(O   3,C  25,C  15,C  14)   -177.5689         0.011715   
    212. D(C  15,C  25,O   3,H  48)    178.8379         0.028953   
    213. D(O   4,C  25,O   3,H  48)      0.7014         0.028953   
    214. D(C  28,C  26,C  20,N   7)    -76.3020         0.012544   
    215. D(N   8,C  26,C  20,H  39)    -17.4991         0.012544   
    216. D(N   8,C  26,C  20,H  38)   -133.9797         0.012544   
    217. D(N   8,C  26,C  20,N   7)    103.7093         0.012544   
    218. D(C  28,C  26,N   8,C  27)      0.0095         0.031918   
    219. D(C  28,C  26,C  20,H  38)     46.0091         0.012544   
    220. D(C  20,C  26,N   8,C  27)    179.9981         0.031918   
    221. D(C  30,C  27,N   8,C  26)   -179.9865         0.031761   
    222. D(C  29,C  27,N   8,C  26)      0.0030         0.031761   
    223. D(H  45,C  28,C  26,C  20)     -0.0039         0.029561   
    224. D(H  45,C  28,C  26,N   8)    179.9844         0.029561   
    225. D(N   9,C  28,C  26,C  20)    179.9912         0.029561   
    226. D(N   9,C  28,C  26,N   8)     -0.0205         0.029561   
    227. D(H  45,C  28,N   9,C  29)   -179.9873         0.031022   
    228. D(C  26,C  28,N   9,C  29)      0.0173         0.031022   
    229. D(N  11,C  29,C  27,N   8)    179.9662         0.028741   
    230. D(N   9,C  29,C  27,C  30)    179.9839         0.028741   
    231. D(N   9,C  29,C  27,N   8)     -0.0054         0.028741   
    232. D(C  27,C  29,N  11,C  31)      0.0242         0.020412   
    233. D(N   9,C  29,N  11,C  31)    179.9968         0.020412   
    234. D(C  27,C  29,N   9,C  28)     -0.0048         0.031233   
    235. D(N  11,C  29,C  27,C  30)     -0.0444         0.028741   
    236. D(N  11,C  29,N   9,C  28)   -179.9782         0.031233   
    237. D(N  10,C  30,C  27,N   8)   -179.9826         0.015172   
    238. D(O   5,C  30,C  27,C  29)   -179.9871         0.015172   
    239. D(O   5,C  30,C  27,N   8)      0.0030         0.015172   
    240. D(C  27,C  30,N  10,H  47)    179.9878         0.025831   
    241. D(C  27,C  30,N  10,C  31)      0.0071         0.025831   
    242. D(O   5,C  30,N  10,H  47)      0.0029         0.025831   
    243. D(N  10,C  30,C  27,C  29)      0.0274         0.015172   
    244. D(O   5,C  30,N  10,C  31)   -179.9778         0.025831   
    245. D(N  11,C  31,N  12,H  50)    179.9976         0.029259   
    246. D(N  11,C  31,N  12,H  49)     -0.0010         0.029259   
    247. D(N  10,C  31,N  12,H  50)     -0.0013         0.029259   
    248. D(N  10,C  31,N  12,H  49)   -179.9999         0.029259   
    249. D(N  12,C  31,N  11,C  29)   -179.9867         0.044614   
    250. D(N  10,C  31,N  11,C  29)      0.0121         0.044614   
    251. D(N  12,C  31,N  10,H  47)     -0.0099         0.024459   
    252. D(N  12,C  31,N  10,C  30)    179.9708         0.024459   
    253. D(N  11,C  31,N  10,H  47)    179.9912         0.024459   
    254. D(N  11,C  31,N  10,C  30)     -0.0282         0.024459   
    -----------------------------------------------------------------

Number of atoms                         .... 51
Number of degrees of freedom            .... 254


         *************************************************************
         *                GEOMETRY OPTIMIZATION CYCLE   1            *
         *************************************************************
---------------------------------
CARTESIAN COORDINATES (ANGSTROEM)
---------------------------------
  O      8.049100    1.418200   -1.527700
  O      4.412200    1.620000    1.956800
  O      6.010800    1.325200   -2.521100
  O      6.804200   -4.083800   -0.664900
  O      7.694500   -3.094300    1.172400
  O     -5.909300   -2.920400    0.412200
  N      4.760800    0.827600   -0.194900
  N     -1.647600    0.908100    0.104600
  N     -4.553600   -0.571000    0.607400
  N     -5.906900    1.750300   -0.217500
  N     -7.772600   -1.836000   -0.439500
  N     -7.809700    0.497800   -0.769000
  N     -9.685900   -0.804200   -1.304100
  C      6.200900    0.827300   -0.144600
  C      6.774400   -0.489500    0.392600
  C      6.473600   -1.740100   -0.443200
  C      3.975900    1.230200    0.876900
  C      2.506500    1.146800    0.675200
  C      6.708100    1.198300   -1.523000
  C     -0.252900    0.987800    0.296800
  C     -2.571400    0.728800    1.181800
  C      1.661200    0.970800    1.770800
  C      1.971900    1.243600   -0.609500
  C      0.281600    0.891100    1.581700
  C      0.592200    1.164000   -0.798700
  C      7.050600   -3.013800    0.135500
  C     -3.979300    0.645700    0.660500
  C     -5.814400   -0.592700    0.133500
  C     -4.643100    1.784300    0.256100
  C     -6.495700    0.537800   -0.276700
  C     -6.480500   -1.896800    0.057800
  C     -8.405600   -0.661100   -0.838200
  H      6.503800    1.640000    0.528100
  H      7.863700   -0.391800    0.488500
  H      6.396500   -0.651900    1.410800
  H      6.888900   -1.616300   -1.449500
  H      5.389700   -1.877500   -0.524300
  H      4.329600    0.439900   -1.027600
  H     -2.512800    1.557300    1.898800
  H     -2.352600   -0.197800    1.727300
  H      2.059200    0.888800    2.778900
  H      2.591200    1.412300   -1.485500
  H     -1.986600    0.979800   -0.848900
  H     -0.339600    0.754000    2.461600
  H      0.187400    1.247700   -1.804100
  H     -4.187600    2.767000    0.296100
  H      8.374100    1.673800   -2.417300
  H     -8.290700   -2.706100   -0.518100
  H      7.192500   -4.908400   -0.302200
  H    -10.223700   -0.003100   -1.616200
  H    -10.133400   -1.713000   -1.350900

----------------------------
CARTESIAN COORDINATES (A.U.)
----------------------------
  NO LB      ZA    FRAG     MASS         X           Y           Z
   0 O     8.0000    0    15.999   15.210595    2.680010   -2.886935
   1 O     8.0000    0    15.999    8.337850    3.061356    3.697816
   2 O     8.0000    0    15.999   11.358766    2.504265   -4.764189
   3 O     8.0000    0    15.999   12.858075   -7.717264   -1.256479
   4 O     8.0000    0    15.999   14.540498   -5.847380    2.215515
   5 O     8.0000    0    15.999  -11.166959   -5.518756    0.778945
   6 N     7.0000    0    14.007    8.996608    1.563937   -0.368308
   7 N     7.0000    0    14.007   -3.113513    1.716060    0.197665
   8 N     7.0000    0    14.007   -8.605057   -1.079034    1.147820
   9 N     7.0000    0    14.007  -11.162423    3.307588   -0.411015
  10 N     7.0000    0    14.007  -14.688085   -3.469537   -0.830535
  11 N     7.0000    0    14.007  -14.758194    0.940706   -1.453199
  12 N     7.0000    0    14.007  -18.303698   -1.519718   -2.464392
  13 C     6.0000    0    12.011   11.718003    1.563370   -0.273254
  14 C     6.0000    0    12.011   12.801761   -0.925021    0.741906
  15 C     6.0000    0    12.011   12.233331   -3.288312   -0.837527
  16 C     6.0000    0    12.011    7.513362    2.324741    1.657101
  17 C     6.0000    0    12.011    4.736599    2.167138    1.275943
  18 C     6.0000    0    12.011   12.676472    2.264459   -2.878053
  19 C     6.0000    0    12.011   -0.477912    1.866671    0.560871
  20 C     6.0000    0    12.011   -4.859242    1.377232    2.233278
  21 C     6.0000    0    12.011    3.139213    1.834546    3.346327
  22 C     6.0000    0    12.011    3.726351    2.350063   -1.151788
  23 C     6.0000    0    12.011    0.532147    1.683935    2.988980
  24 C     6.0000    0    12.011    1.119096    2.199641   -1.509324
  25 C     6.0000    0    12.011   13.323703   -5.695257    0.256058
  26 C     6.0000    0    12.011   -7.519787    1.220196    1.248164
  27 C     6.0000    0    12.011  -10.987624   -1.120041    0.252278
  28 C     6.0000    0    12.011   -8.774187    3.371838    0.483959
  29 C     6.0000    0    12.011  -12.275094    1.016295   -0.522887
  30 C     6.0000    0    12.011  -12.246370   -3.584433    0.109226
  31 C     6.0000    0    12.011  -15.884282   -1.249298   -1.583968
  32 H     1.0000    0     1.008   12.290401    3.099151    0.997964
  33 H     1.0000    0     1.008   14.860239   -0.740395    0.923131
  34 H     1.0000    0     1.008   12.087633   -1.231912    2.666026
  35 H     1.0000    0     1.008   13.018134   -3.054364   -2.739158
  36 H     1.0000    0     1.008   10.185057   -3.547961   -0.990783
  37 H     1.0000    0     1.008    8.181758    0.831291   -1.941883
  38 H     1.0000    0     1.008   -4.748504    2.942871    3.588212
  39 H     1.0000    0     1.008   -4.445770   -0.373788    3.264124
  40 H     1.0000    0     1.008    3.891324    1.679589    5.251360
  41 H     1.0000    0     1.008    4.896658    2.668860   -2.807188
  42 H     1.0000    0     1.008   -3.754130    1.851554   -1.604189
  43 H     1.0000    0     1.008   -0.641751    1.424854    4.651750
  44 H     1.0000    0     1.008    0.354135    2.357811   -3.409255
  45 H     1.0000    0     1.008   -7.913417    5.228872    0.559548
  46 H     1.0000    0     1.008   15.824756    3.163024   -4.568035
  47 H     1.0000    0     1.008  -15.667152   -5.113788   -0.979067
  48 H     1.0000    0     1.008   13.591855   -9.275532   -0.571075
  49 H     1.0000    0     1.008  -19.319993   -0.005858   -3.054175
  50 H     1.0000    0     1.008  -19.149351   -3.237101   -2.552831

--------------------------------
INTERNAL COORDINATES (ANGSTROEM)
--------------------------------
 O      0   0   0     0.000000000000     0.00000000     0.00000000
 O      1   0   0     5.040784175106     0.00000000     0.00000000
 O      1   2   0     2.269396274343    69.89191521     0.00000000
 O      1   2   3     5.706680633258    77.09661924   275.79937469
 O      4   1   2     2.268791667386    67.43946354   294.95664845
 O      2   1   3    11.381317303810   122.99225332    26.78938828
 N      2   1   3     2.319317272389    40.23299324    25.47307430
 N      6   2   1     5.737082612269    21.15546173   277.30160891
 N      6   2   1     2.719504714098    36.24727031   250.72879898
 N      9   6   2     2.810749827003   116.89689898   166.08734290
 N      6   2   1     2.318017070688   126.31464285   268.11557500
 N     10   9   6     2.343833684373    91.06600512   359.96773822
 N     11   6   2     2.339414732364   178.26444897   168.99858058
 C      7   2   1     1.440978205942    96.77082046    18.86822900
 C     14   7   2     1.533443292072   112.71666942    88.69022540
 C     15  14   7     1.533963050402   115.84110847    62.51482045
 C      2   1   3     1.228204274541    68.64173691    15.64408571
 C     17   2   1     1.485521729898   119.24723296   191.77390840
 C      3   1   2     1.224146441403    30.20005677   340.62822653
 C      8   6   2     1.410135107002   139.91696263    15.01099923
 C      8   6   2     1.430354770678    52.85803709   275.90251891
 C     18  17   2     1.394936360556   119.98964221   334.04485546
 C     18  17   2     1.394855365262   120.01750280   154.08469479
 C     22  18  17     1.394778498544   120.00719210   180.06437164
 C     20   8   6     1.394761879318   119.95788276   110.39777686
 C      5   4   1     1.223212602126    30.19352372    28.43943536
 C      9   6   2     1.346476509264   174.93639321   166.22529765
 C      9   6   2     1.347096410804    59.61936411   166.07372100
 C     10   9   6     1.350053110066    57.80064474   179.97558757
 C     10   9   6     1.349202108655    58.72187723     0.00000000
 C      6   2   1     1.224592079021    97.40169427   263.10889015
 C     12  10   9     1.304965386514   149.06603896     0.00000000
 H     14   7   2     1.097613315335   107.27952099   329.27324991
 H     15  14   7     1.097869113328   108.98125382   184.95121793
 H     15  14   7     1.098140888047   108.85121334   299.98669810
 H     16  15  14     1.095646028606   109.51071729    60.12196165
 H     16  15  14     1.095579837346   109.66877825   300.87876974
 H      7   2   1     1.014708835085   145.89280458   190.47981612
 H     21   8   6     1.097239814261   111.28298972   191.57151150
 H     21   8   6     1.097283577750   110.57689015    72.06227790
 H     22  18  17     1.086919320833   121.06989570   359.76526611
 H     23  18  17     1.085987191453   122.35439819   357.97476310
 H      8   6   2     1.014506845714    81.33454067   137.22449320
 H     24  22  18     1.085776155568   117.59666152   180.00516226
 H     25  20   8     1.087059285412   120.69945853     0.40208011
 H     29  10   9     1.083872474048   115.41569991   180.00524832
 H      1   2   3     0.980991600372   148.81064016    38.07495116
 H     11   6   2     1.015716289128    92.16105559   169.80766445
 H      4   1   2     0.980965514175   141.26070145   247.05070541
 H     13  11  48     1.014098841336   153.62199569   179.99135855
 H     13  11  48     1.014082802339    89.00890319     0.00000000

---------------------------
INTERNAL COORDINATES (A.U.)
---------------------------
 O      0   0   0     0.000000000000     0.00000000     0.00000000
 O      1   0   0     9.525701591155     0.00000000     0.00000000
 O      1   2   0     4.288537447849    69.89191521     0.00000000
 O      1   2   3    10.784063530610    77.09661924   275.79937469
 O      4   1   2     4.287394906282    67.43946354   294.95664845
 O      2   1   3    21.507572747460   122.99225332    26.78938828
 N      2   1   3     4.382874462488    40.23299324    25.47307430
 N      6   2   1    10.841514944870    21.15546173   277.30160891
 N      6   2   1     5.139119129553    36.24727031   250.72879898
 N      9   6   2     5.311547404003   116.89689898   166.08734290
 N      6   2   1     4.380417437354   126.31464285   268.11557500
 N     10   9   6     4.429203766924    91.06600512   359.96773822
 N     11   6   2     4.420853157828   178.26444897   168.99858058
 C      7   2   1     2.723054174180    96.77082046    18.86822900
 C     14   7   2     2.897787863914   112.71666942    88.69022540
 C     15  14   7     2.898770064815   115.84110847    62.51482045
 C      2   1   3     2.320969715393    68.64173691    15.64408571
 C     17   2   1     2.807229235497   119.24723296   191.77390840
 C      3   1   2     2.313301522066    30.20005677   340.62822653
 C      8   6   2     2.664769164062   139.91696263    15.01099923
 C      8   6   2     2.702978790928    52.85803709   275.90251891
 C     18  17   2     2.636047695699   119.98964221   334.04485546
 C     18  17   2     2.635894636776   120.01750280   154.08469479
 C     22  18  17     2.635749379730   120.00719210   180.06437164
 C     20   8   6     2.635717973945   119.95788276   110.39777686
 C      5   4   1     2.311536821579    30.19352372    28.43943536
 C      9   6   2     2.544471848267   174.93639321   166.22529765
 C      9   6   2     2.545643292407    59.61936411   166.07372100
 C     10   9   6     2.551230644274    57.80064474   179.97558757
 C     10   9   6     2.549622484668    58.72187723     0.00000000
 C      6   2   1     2.314143655118    97.40169427   263.10889015
 C     12  10   9     2.466027194758   149.06603896     0.00000000
 H     14   7   2     2.074188566928   107.27952099   329.27324991
 H     15  14   7     2.074671955081   108.98125382   184.95121793
 H     15  14   7     2.075185534869   108.85121334   299.98669810
 H     16  15  14     2.070470933784   109.51071729    60.12196165
 H     16  15  14     2.070345850431   109.66877825   300.87876974
 H      7   2   1     1.917521803981   145.89280458   190.47981612
 H     21   8   6     2.073482752188   111.28298972   191.57151150
 H     21   8   6     2.073565453197   110.57689015    72.06227790
 H     22  18  17     2.053979846042   121.06989570   359.76526611
 H     23  18  17     2.052218376792   122.35439819   357.97476310
 H      8   6   2     1.917140099387    81.33454067   137.22449320
 H     24  22  18     2.051819576765   117.59666152   180.00516226
 H     25  20   8     2.054244340764   120.69945853     0.40208011
 H     29  10   9     2.048222140047   115.41569991   180.00524832
 H      1   2   3     1.853805464380   148.81064016    38.07495116
 H     11   6   2     1.919425616215    92.16105559   169.80766445
 H      4   1   2     1.853756168611   141.26070145   247.05070541
 H     13  11  48     1.916369082853   153.62199569   179.99135855
 H     13  11  48     1.916338773540    89.00890319     0.00000000

---------------------
BASIS SET INFORMATION
---------------------
There are 4 groups of distinct atoms

 Group   1 Type O   : 11s6p2d contracted to 5s3p2d pattern {62111/411/11}
 Group   2 Type N   : 11s6p1d contracted to 5s3p1d pattern {62111/411/1}
 Group   3 Type C   : 11s6p1d contracted to 5s3p1d pattern {62111/411/1}
 Group   4 Type H   : 5s contracted to 3s pattern {311}

Atom   0O    basis set group =>   1
Atom   1O    basis set group =>   1
Atom   2O    basis set group =>   1
Atom   3O    basis set group =>   1
Atom   4O    basis set group =>   1
Atom   5O    basis set group =>   1
Atom   6N    basis set group =>   2
Atom   7N    basis set group =>   2
Atom   8N    basis set group =>   2
Atom   9N    basis set group =>   2
Atom  10N    basis set group =>   2
Atom  11N    basis set group =>   2
Atom  12N    basis set group =>   2
Atom  13C    basis set group =>   3
Atom  14C    basis set group =>   3
Atom  15C    basis set group =>   3
Atom  16C    basis set group =>   3
Atom  17C    basis set group =>   3
Atom  18C    basis set group =>   3
Atom  19C    basis set group =>   3
Atom  20C    basis set group =>   3
Atom  21C    basis set group =>   3
Atom  22C    basis set group =>   3
Atom  23C    basis set group =>   3
Atom  24C    basis set group =>   3
Atom  25C    basis set group =>   3
Atom  26C    basis set group =>   3
Atom  27C    basis set group =>   3
Atom  28C    basis set group =>   3
Atom  29C    basis set group =>   3
Atom  30C    basis set group =>   3
Atom  31C    basis set group =>   3
Atom  32H    basis set group =>   4
Atom  33H    basis set group =>   4
Atom  34H    basis set group =>   4
Atom  35H    basis set group =>   4
Atom  36H    basis set group =>   4
Atom  37H    basis set group =>   4
Atom  38H    basis set group =>   4
Atom  39H    basis set group =>   4
Atom  40H    basis set group =>   4
Atom  41H    basis set group =>   4
Atom  42H    basis set group =>   4
Atom  43H    basis set group =>   4
Atom  44H    basis set group =>   4
Atom  45H    basis set group =>   4
Atom  46H    basis set group =>   4
Atom  47H    basis set group =>   4
Atom  48H    basis set group =>   4
Atom  49H    basis set group =>   4
Atom  50H    basis set group =>   4
---------------------------------
AUXILIARY/J BASIS SET INFORMATION
---------------------------------
There are 4 groups of distinct atoms

 Group   1 Type O   : 8s3p3d contracted to 6s3p3d pattern {311111/111/111}
 Group   2 Type N   : 8s3p3d contracted to 6s3p3d pattern {311111/111/111}
 Group   3 Type C   : 8s3p3d contracted to 6s3p3d pattern {311111/111/111}
 Group   4 Type H   : 5s2p contracted to 3s1p pattern {311/2}

Atom   0O    basis set group =>   1
Atom   1O    basis set group =>   1
Atom   2O    basis set group =>   1
Atom   3O    basis set group =>   1
Atom   4O    basis set group =>   1
Atom   5O    basis set group =>   1
Atom   6N    basis set group =>   2
Atom   7N    basis set group =>   2
Atom   8N    basis set group =>   2
Atom   9N    basis set group =>   2
Atom  10N    basis set group =>   2
Atom  11N    basis set group =>   2
Atom  12N    basis set group =>   2
Atom  13C    basis set group =>   3
Atom  14C    basis set group =>   3
Atom  15C    basis set group =>   3
Atom  16C    basis set group =>   3
Atom  17C    basis set group =>   3
Atom  18C    basis set group =>   3
Atom  19C    basis set group =>   3
Atom  20C    basis set group =>   3
Atom  21C    basis set group =>   3
Atom  22C    basis set group =>   3
Atom  23C    basis set group =>   3
Atom  24C    basis set group =>   3
Atom  25C    basis set group =>   3
Atom  26C    basis set group =>   3
Atom  27C    basis set group =>   3
Atom  28C    basis set group =>   3
Atom  29C    basis set group =>   3
Atom  30C    basis set group =>   3
Atom  31C    basis set group =>   3
Atom  32H    basis set group =>   4
Atom  33H    basis set group =>   4
Atom  34H    basis set group =>   4
Atom  35H    basis set group =>   4
Atom  36H    basis set group =>   4
Atom  37H    basis set group =>   4
Atom  38H    basis set group =>   4
Atom  39H    basis set group =>   4
Atom  40H    basis set group =>   4
Atom  41H    basis set group =>   4
Atom  42H    basis set group =>   4
Atom  43H    basis set group =>   4
Atom  44H    basis set group =>   4
Atom  45H    basis set group =>   4
Atom  46H    basis set group =>   4
Atom  47H    basis set group =>   4
Atom  48H    basis set group =>   4
Atom  49H    basis set group =>   4
Atom  50H    basis set group =>   4


           ************************************************************
           *        Program running with 16 parallel MPI-processes    *
           *              working on a common directory               *
           ************************************************************
------------------------------------------------------------------------------
                             ORCA STARTUP CALCULATIONS
                           -- RI-GTO INTEGRALS CHOSEN --
------------------------------------------------------------------------------
------------------------------------------------------------------------------
                   ___                                                        
                  /   \      - P O W E R E D   B Y -                         
                 /     \                                                     
                 |  |  |   _    _      __       _____    __    __             
                 |  |  |  | |  | |    /  \     |  _  \  |  |  /  |          
                  \  \/   | |  | |   /    \    | | | |  |  | /  /          
                 / \  \   | |__| |  /  /\  \   | |_| |  |  |/  /          
                |  |  |   |  __  | /  /__\  \  |    /   |      \           
                |  |  |   | |  | | |   __   |  |    \   |  |\   \          
                \     /   | |  | | |  |  |  |  | |\  \  |  | \   \       
                 \___/    |_|  |_| |__|  |__|  |_| \__\ |__|  \__/        
                                                                              
                      - O R C A' S   B I G   F R I E N D -                    
                                      &                                       
                       - I N T E G R A L  F E E D E R -                       
                                                                              
 v1 FN, 2020, v2 2021, v3 2022-2024                                           
------------------------------------------------------------------------------


----------------------
SHARK INTEGRAL PACKAGE
----------------------

Number of atoms                             ...     51
Number of basis functions                   ...    695
Number of shells                            ...    351
Maximum angular momentum                    ...      2
Integral batch strategy                     ... SHARK/LIBINT Hybrid
RI-J (if used) integral strategy            ... SPLIT-RIJ (Revised 2003 algorithm where possible)
Printlevel                                  ...      1
Contraction scheme used                     ... SEGMENTED contraction
Prescreening option                         ... SCHWARTZ
   Thresh                                   ... 2.500e-11
   Tcut                                     ... 2.500e-12
   Tpresel                                  ... 2.500e-12 
Coulomb Range Separation                    ... NOT USED
Exchange Range Separation                   ... NOT USED
Multipole approximations                    ... NOT USED
Finite Nucleus Model                        ... NOT USED
CABS basis                                  ... NOT available
Auxiliary Coulomb fitting basis             ... AVAILABLE
   # of basis functions in Aux-J            ...   1074
   # of shells in Aux-J                     ...    460
   Maximum angular momentum in Aux-J        ...      2
Auxiliary J/K fitting basis                 ... NOT available
Auxiliary Correlation fitting basis         ... NOT available
Auxiliary 'external' fitting basis          ... NOT available

Checking pre-screening integrals            ... done (  0.0 sec) Dimension = 351
Check shell pair data                       ... done (  0.0 sec)
Shell pair information
Shell pair cut-off parameter TPreSel        ...   2.5e-12
Total number of shell pairs                 ...     61776
Shell pairs after pre-screening             ...     30172
Total number of primitive shell pairs       ...    230264
Primitive shell pairs kept                  ...     69515
          la=0 lb=0:  10762 shell pairs
          la=1 lb=0:  10898 shell pairs
          la=1 lb=1:   2726 shell pairs
          la=2 lb=0:   3620 shell pairs
          la=2 lb=1:   1844 shell pairs
          la=2 lb=2:    322 shell pairs

Calculating one electron integrals          ... done (  0.7 sec)
Calculating RI/J V-Matrix + Cholesky decomp.... done (  0.6 sec)
Calculating Nuclear repulsion               ... done (  0.0 sec) ENN=   2841.055949703587 Eh

Diagonalization of the overlap matrix:
Smallest eigenvalue                        ... 8.182e-06
Time for diagonalization                   ...    0.492 sec
Threshold for overlap eigenvalues          ... 1.000e-07
Number of eigenvalues below threshold      ... 0
Time for construction of square roots      ...    0.067 sec
Total time needed                          ...    0.564 sec

-------------------
DFT GRID GENERATION
-------------------

General Integration Accuracy     IntAcc      ... 4.959
Radial Grid Type                 RadialGrid  ... OptM3 with GC (2021)
Angular Grid (max. ang.)         AngularGrid ... 6 (Lebedev-590)
Angular grid pruning method      GridPruning ... 4 (adaptive)
Weight generation scheme         WeightScheme... mBecke (2022)
Basis function cutoff            BFCut       ... 1.0000e-11
Integration weight cutoff        WCut        ... 1.0000e-14
Partially contracted basis set               ... off
Rotationally invariant grid construction     ... off
Angular grids for H and He will be reduced by one unit
Diffuse basis detected: some atoms will have their outermost
                        angular grid increased by 1.

Total number of grid points                  ...   620754
Total number of batches                      ...     9725
Average number of points per batch           ...       63
Average number of grid points per atom       ...    12172
Initializing property integral containers    ... done (  0.1 sec)

SHARK setup successfully completed in  10.4 seconds

Maximum memory used throughout the entire STARTUP-calculation: 144.6 MB


           ************************************************************
           *        Program running with 16 parallel MPI-processes    *
           *              working on a common directory               *
           ************************************************************
-------------------------------------------------------------------------------
                                 ORCA GUESS
                   Start orbitals & Density for SCF / CASSCF
-------------------------------------------------------------------------------

------------
SCF SETTINGS
------------
Hamiltonian:
 Density Functional     Method          .... DFT(GTOs)
 Exchange Functional    Exchange        .... B973C
 Correlation Functional Correlation     .... B973C
 Gradients option       PostSCFGGA      .... off
 RI-approximation to the Coulomb term is turned on
   Number of AuxJ basis functions       .... 1074


General Settings:
 Integral files         IntName         .... m1_00_Vitamin_B9-B97-3C-TZ
 Hartree-Fock type      HFTyp           .... RHF
 Total Charge           Charge          ....    0
 Multiplicity           Mult            ....    1
 Number of Electrons    NEL             ....  230
 Basis Dimension        Dim             ....  695
 Nuclear Repulsion      ENuc            ....   2841.0559497036 Eh

Convergence Acceleration:
 AO-DIIS                CNVDIIS         .... on
   Start iteration      DIISMaxIt       ....    12
   Startup error        DIISStart       ....  0.200000
   # of expansion vecs  DIISMaxEq       ....     5
   Bias factor          DIISBfac        ....   1.050
   Max. coefficient     DIISMaxC        ....  10.000
 MO-DIIS                CNVKDIIS        .... off
 Trust-Rad. Augm. Hess. CNVTRAH         .... off
 SOSCF                  CNVSOSCF        .... on
   Start iteration      SOSCFMaxIt      ....   150
   Startup grad/error   SOSCFStart      ....  0.003300
   Hessian update       SOSCFHessUp     .... L-BFGS
 Level Shifting         CNVShift        .... on
   Level shift para.    LevelShift      ....    0.2500
   Turn off err/grad.   ShiftErr        ....    0.0010
 Zerner damping         CNVZerner       .... off
 Static damping         CNVDamp         .... on
   Fraction old density DampFac         ....    0.7000
   Max. Damping (<1)    DampMax         ....    0.9800
   Min. Damping (>=0)   DampMin         ....    0.0000
   Turn off err/grad.   DampErr         ....    0.1000

SCF Procedure:
 Maximum # iterations   MaxIter         ....   800
 SCF integral mode      SCFMode         .... Direct
   Integral package                     .... SHARK and LIBINT hybrid scheme
 Reset frequency        DirectResetFreq ....    20
 Integral Threshold     Thresh          ....  2.500e-11 Eh
 Primitive CutOff       TCut            ....  2.500e-12 Eh

Convergence Tolerance:
 Convergence Check Mode ConvCheckMode   .... Total+1el-Energy
 Convergence forced     ConvForced      .... 0
 Energy Change          TolE            ....  1.000e-08 Eh
 1-El. energy change                    ....  1.000e-05 Eh
 Orbital Gradient       TolG            ....  1.000e-05
 Orbital Rotation angle TolX            ....  1.000e-05
 DIIS Error             TolErr          ....  5.000e-07

--------------------------------
INITIAL GUESS: MINIMAL BASIS EHT
--------------------------------
The minimal basis has 179 functions
EHT matrix was diagonalized
Basis set overlap was calculated now projecting the orbitals
Using GuessMode=FMatrix for the initial guess
C*T matrix was formed
Effective Fockian was calculated
Effective Fockian was diagonalized
Initial density was built
                      ------------------
                      INITIAL GUESS DONE
                      ------------------
             **** ENERGY FILE WAS UPDATED (m1_00_Vitamin_B9-B97-3C-TZ.en.tmp) ****
Finished Guess after   1.4 sec
Maximum memory used throughout the entire GUESS-calculation: 59.8 MB


           ************************************************************
           *        Program running with 16 parallel MPI-processes    *
           *              working on a common directory               *
           ************************************************************

-------------------------------------------------------------------------------------------
                                      ORCA LEAN-SCF
                              memory conserving SCF solver
-------------------------------------------------------------------------------------------

----------------------------------------D-I-I-S--------------------------------------------
Iteration    Energy (Eh)           Delta-E    RMSDP     MaxDP     DIISErr   Damp  Time(sec)
-------------------------------------------------------------------------------------------
               ***  Starting incremental Fock matrix formation  ***
    1    -1563.2834735696142161     0.00e+00  5.07e-03  4.82e-01  4.64e-01  0.700   2.6
Warning: op=0 Small HOMO/LUMO gap (  -0.512) - skipping pre-diagonalization
         LevelShift set to 0.612 Eh
         Will do a full diagonalization
    2    -1565.3644855144530084    -2.08e+00  3.85e-03  4.33e-01  3.35e-01  0.700   1.5
    3    -1566.2050482924205426    -8.41e-01  2.34e-03  1.70e-01  2.37e-01  0.700   1.2
                               ***Turning on AO-DIIS***
    4    -1567.0554705551585357    -8.50e-01  1.47e-03  7.78e-02  1.65e-01  0.700   1.3
    5    -1567.6897149381911731    -6.34e-01  1.21e-03  1.03e-01  1.13e-01  0.700   1.3
    6    -1568.1233919747437540    -4.34e-01  9.70e-04  7.97e-02  7.84e-02  0.700   1.2
    7    -1568.4241516300326111    -3.01e-01  2.56e-03  1.83e-01  5.50e-02  0.000   1.3
    8    -1569.1185608789810431    -6.94e-01  4.57e-04  6.08e-02  3.02e-02  0.000   1.3
    9    -1569.1252592190876385    -6.70e-03  2.99e-04  4.59e-02  1.15e-02  0.000   1.2
   10    -1569.1280753155515413    -2.82e-03  1.84e-04  2.09e-02  8.16e-03  0.000   1.2
   11    -1569.1297929583761288    -1.72e-03  1.34e-04  1.30e-02  6.81e-03  0.000   1.2
   12    -1569.1308886806700684    -1.10e-03  9.52e-05  4.67e-03  5.73e-03  0.000   1.2
   13    -1569.1316428240697860    -7.54e-04  7.38e-05  2.90e-03  4.75e-03  0.000   1.2
   14    -1569.1321405628059438    -4.98e-04  5.83e-05  2.48e-03  3.97e-03  0.000   1.2
   15    -1569.1324780400009331    -3.37e-04  4.79e-05  1.97e-03  3.35e-03  0.000   1.2
                              *** Initializing SOSCF ***
---------------------------------------S-O-S-C-F--------------------------------------
Iteration    Energy (Eh)           Delta-E    RMSDP     MaxDP     MaxGrad    Time(sec)
--------------------------------------------------------------------------------------
   16    -1569.1327153387337603    -2.37e-04  3.71e-05  1.64e-03  2.76e-03     1.3
               *** Restarting incremental Fock matrix formation ***
   17    -1569.1328781634065308    -1.63e-04  1.41e-04  6.45e-03  3.82e-03     1.3
   18    -1569.1332080463143939    -3.30e-04  1.00e-04  4.74e-03  8.00e-04     1.1
   19    -1569.1331126108425451     9.54e-05  5.84e-05  2.89e-03  1.83e-03     1.1
   20    -1569.1332421005226934    -1.29e-04  2.66e-05  3.12e-03  2.34e-04     1.1
   21    -1569.1332341021798129     8.00e-06  1.77e-05  1.76e-03  4.77e-04     1.1
   22    -1569.1332440413661971    -9.94e-06  5.26e-06  2.83e-04  7.94e-05     1.1
   23    -1569.1332436223219702     4.19e-07  3.40e-06  2.92e-04  1.65e-04     1.1
   24    -1569.1332441796139392    -5.57e-07  4.47e-06  3.96e-04  1.50e-05     1.1
   25    -1569.1332441392705732     4.03e-08  1.76e-06  1.74e-04  3.51e-05     1.1
   26    -1569.1332441753247622    -3.61e-08  4.58e-06  4.52e-04  5.45e-06     1.0
   27    -1569.1332441696577007     5.67e-09  2.11e-06  2.21e-04  9.95e-06     1.0
                 **** Energy Check signals convergence ****

               *****************************************************
               *                     SUCCESS                       *
               *           SCF CONVERGED AFTER  27 CYCLES          *
               *****************************************************

             **** ENERGY FILE WAS UPDATED (m1_00_Vitamin_B9-B97-3C-TZ.en.tmp) ****

----------------
TOTAL SCF ENERGY
----------------

Total Energy       :      -1569.13324416965770 Eh          -42698.28631 eV

Components:
Nuclear Repulsion  :       2841.05594970358743 Eh           77309.06271 eV
Electronic Energy  :      -4410.18919387324513 Eh         -120007.34902 eV
One Electron Energy:      -7789.06149327236653 Eh         -211951.13862 eV
Two Electron Energy:       3378.87229939912140 Eh           91943.78960 eV

Virial components:
Potential Energy   :      -3131.82106158309671 Eh          -85221.18365 eV
Kinetic Energy     :       1562.68781741343923 Eh           42522.89733 eV
Virial Ratio       :          2.00412457733681

DFT components:
N(Alpha)           :      114.999997781754 electrons
N(Beta)            :      114.999997781754 electrons
N(Total)           :      229.999995563508 electrons
E(XC)              :     -208.893196277225 Eh       

---------------
SCF CONVERGENCE
---------------

  Last Energy change         ...   -5.6671e-09  Tolerance :   1.0000e-08
  Last MAX-Density change    ...    2.2076e-04  Tolerance :   1.0000e-07
  Last RMS-Density change    ...    2.1108e-06  Tolerance :   5.0000e-09
  Last DIIS Error            ...    2.7570e-03  Tolerance :   5.0000e-07
  Last Orbital Gradient      ...    9.9524e-06  Tolerance :   1.0000e-05
  Last Orbital Rotation      ...    1.0726e-05  Tolerance :   1.0000e-05


----------------
ORBITAL ENERGIES
----------------

  NO   OCC          E(Eh)            E(eV) 
   0   2.0000     -18.810222      -511.8522 
   1   2.0000     -18.798811      -511.5417 
   2   2.0000     -18.750746      -510.2337 
   3   2.0000     -18.736862      -509.8559 
   4   2.0000     -18.730011      -509.6695 
   5   2.0000     -18.700198      -508.8583 
   6   2.0000     -14.071064      -382.8931 
   7   2.0000     -14.053994      -382.4286 
   8   2.0000     -14.017630      -381.4391 
   9   2.0000     -14.012907      -381.3106 
  10   2.0000     -14.012760      -381.3066 
  11   2.0000     -14.008965      -381.2033 
  12   2.0000     -13.993440      -380.7809 
  13   2.0000     -10.041097      -273.2321 
  14   2.0000     -10.037221      -273.1267 
  15   2.0000     -10.027443      -272.8606 
  16   2.0000     -10.013328      -272.4765 
  17   2.0000      -9.981293      -271.6048 
  18   2.0000      -9.981024      -271.5975 
  19   2.0000      -9.956451      -270.9288 
  20   2.0000      -9.952180      -270.8126 
  21   2.0000      -9.951111      -270.7835 
  22   2.0000      -9.950245      -270.7599 
  23   2.0000      -9.941157      -270.5126 
  24   2.0000      -9.939702      -270.4730 
  25   2.0000      -9.918763      -269.9033 
  26   2.0000      -9.906352      -269.5655 
  27   2.0000      -9.901418      -269.4313 
  28   2.0000      -9.896859      -269.3072 
  29   2.0000      -9.896333      -269.2929 
  30   2.0000      -9.893387      -269.2127 
  31   2.0000      -9.892809      -269.1970 
  32   2.0000      -1.033217       -28.1153 
  33   2.0000      -1.021244       -27.7895 
  34   2.0000      -0.986821       -26.8528 
  35   2.0000      -0.950692       -25.8696 
  36   2.0000      -0.946134       -25.7456 
  37   2.0000      -0.943438       -25.6723 
  38   2.0000      -0.936066       -25.4716 
  39   2.0000      -0.920414       -25.0457 
  40   2.0000      -0.873016       -23.7560 
  41   2.0000      -0.864526       -23.5249 
  42   2.0000      -0.854632       -23.2557 
  43   2.0000      -0.853412       -23.2225 
  44   2.0000      -0.827185       -22.5089 
  45   2.0000      -0.783280       -21.3141 
  46   2.0000      -0.745211       -20.2782 
  47   2.0000      -0.739463       -20.1218 
  48   2.0000      -0.701607       -19.0917 
  49   2.0000      -0.689359       -18.7584 
  50   2.0000      -0.681936       -18.5564 
  51   2.0000      -0.661234       -17.9931 
  52   2.0000      -0.648418       -17.6444 
  53   2.0000      -0.621618       -16.9151 
  54   2.0000      -0.618596       -16.8329 
  55   2.0000      -0.596166       -16.2225 
  56   2.0000      -0.590480       -16.0678 
  57   2.0000      -0.563939       -15.3456 
  58   2.0000      -0.561914       -15.2905 
  59   2.0000      -0.550051       -14.9676 
  60   2.0000      -0.548704       -14.9310 
  61   2.0000      -0.544057       -14.8045 
  62   2.0000      -0.524208       -14.2644 
  63   2.0000      -0.515726       -14.0336 
  64   2.0000      -0.498622       -13.5682 
  65   2.0000      -0.495524       -13.4839 
  66   2.0000      -0.484907       -13.1950 
  67   2.0000      -0.480418       -13.0728 
  68   2.0000      -0.462751       -12.5921 
  69   2.0000      -0.460675       -12.5356 
  70   2.0000      -0.450035       -12.2461 
  71   2.0000      -0.448953       -12.2166 
  72   2.0000      -0.445525       -12.1234 
  73   2.0000      -0.441447       -12.0124 
  74   2.0000      -0.430781       -11.7221 
  75   2.0000      -0.428358       -11.6562 
  76   2.0000      -0.418003       -11.3745 
  77   2.0000      -0.414624       -11.2825 
  78   2.0000      -0.409759       -11.1501 
  79   2.0000      -0.402149       -10.9430 
  80   2.0000      -0.395899       -10.7730 
  81   2.0000      -0.395009       -10.7488 
  82   2.0000      -0.387151       -10.5349 
  83   2.0000      -0.385744       -10.4966 
  84   2.0000      -0.382770       -10.4157 
  85   2.0000      -0.378886       -10.3100 
  86   2.0000      -0.371073       -10.0974 
  87   2.0000      -0.368120       -10.0171 
  88   2.0000      -0.366796        -9.9810 
  89   2.0000      -0.360388        -9.8066 
  90   2.0000      -0.354446        -9.6450 
  91   2.0000      -0.351316        -9.5598 
  92   2.0000      -0.338877        -9.2213 
  93   2.0000      -0.331193        -9.0122 
  94   2.0000      -0.325450        -8.8559 
  95   2.0000      -0.322355        -8.7717 
  96   2.0000      -0.318351        -8.6628 
  97   2.0000      -0.310812        -8.4576 
  98   2.0000      -0.307121        -8.3572 
  99   2.0000      -0.296602        -8.0710 
 100   2.0000      -0.286868        -7.8061 
 101   2.0000      -0.284914        -7.7529 
 102   2.0000      -0.277115        -7.5407 
 103   2.0000      -0.271002        -7.3743 
 104   2.0000      -0.264303        -7.1920 
 105   2.0000      -0.259746        -7.0681 
 106   2.0000      -0.250187        -6.8079 
 107   2.0000      -0.237030        -6.4499 
 108   2.0000      -0.232965        -6.3393 
 109   2.0000      -0.229638        -6.2488 
 110   2.0000      -0.221896        -6.0381 
 111   2.0000      -0.221564        -6.0291 
 112   2.0000      -0.219419        -5.9707 
 113   2.0000      -0.204339        -5.5604 
 114   2.0000      -0.178210        -4.8494 
 115   0.0000      -0.112202        -3.0532 
 116   0.0000      -0.074924        -2.0388 
 117   0.0000      -0.052503        -1.4287 
 118   0.0000      -0.047139        -1.2827 
 119   0.0000      -0.039719        -1.0808 
 120   0.0000      -0.036546        -0.9945 
 121   0.0000      -0.028656        -0.7798 
 122   0.0000      -0.025006        -0.6804 
 123   0.0000       0.000841         0.0229 
 124   0.0000       0.007845         0.2135 
 125   0.0000       0.010978         0.2987 
*Only the first 10 virtual orbitals were printed.

                    ********************************
                    * MULLIKEN POPULATION ANALYSIS *
                    ********************************

-----------------------
MULLIKEN ATOMIC CHARGES
-----------------------
   0 O :   -0.499625
   1 O :   -0.439136
   2 O :   -0.386990
   3 O :   -0.508798
   4 O :   -0.381500
   5 O :   -0.345435
   6 N :   -0.447720
   7 N :   -0.437791
   8 N :    0.011344
   9 N :   -0.049143
  10 N :   -0.425546
  11 N :   -0.157774
  12 N :   -0.681994
  13 C :    0.092178
  14 C :   -0.409634
  15 C :   -0.373354
  16 C :    0.218021
  17 C :   -0.014615
  18 C :    0.322752
  19 C :    0.254156
  20 C :   -0.438691
  21 C :   -0.098909
  22 C :   -0.162160
  23 C :   -0.208402
  24 C :   -0.308033
  25 C :    0.402245
  26 C :    0.102414
  27 C :    0.033178
  28 C :   -0.131839
  29 C :   -0.108741
  30 C :    0.198177
  31 C :    0.400343
  32 H :    0.211901
  33 H :    0.183133
  34 H :    0.209173
  35 H :    0.192864
  36 H :    0.191182
  37 H :    0.354293
  38 H :    0.181958
  39 H :    0.204154
  40 H :    0.196585
  41 H :    0.201166
  42 H :    0.348894
  43 H :    0.200616
  44 H :    0.164385
  45 H :    0.198534
  46 H :    0.440658
  47 H :    0.344469
  48 H :    0.434234
  49 H :    0.374726
  50 H :    0.348095
Sum of atomic charges:    0.0000000

--------------------------------
MULLIKEN REDUCED ORBITAL CHARGES
--------------------------------
  0 O s       :     3.780706  s :     3.780706
      pz      :     1.556260  p :     4.683126
      px      :     1.372675
      py      :     1.754191
      dz2     :     0.010758  d :     0.035793
      dxz     :     0.008929
      dyz     :     0.007071
      dx2y2   :     0.006989
      dxy     :     0.002045

  1 O s       :     3.852345  s :     3.852345
      pz      :     1.359829  p :     4.550412
      px      :     1.736100
      py      :     1.454482
      dz2     :     0.011931  d :     0.036378
      dxz     :     0.007967
      dyz     :     0.007733
      dx2y2   :     0.004588
      dxy     :     0.004159

  2 O s       :     3.848334  s :     3.848334
      pz      :     1.432644  p :     4.508487
      px      :     1.626106
      py      :     1.449738
      dz2     :     0.005997  d :     0.030169
      dxz     :     0.011820
      dyz     :     0.006655
      dx2y2   :     0.003742
      dxy     :     0.001955

  3 O s       :     3.779369  s :     3.779369
      pz      :     1.671542  p :     4.693761
      px      :     1.749158
      py      :     1.273061
      dz2     :     0.007240  d :     0.035668
      dxz     :     0.006603
      dyz     :     0.012990
      dx2y2   :     0.002158
      dxy     :     0.006677

  4 O s       :     3.848385  s :     3.848385
      pz      :     1.344997  p :     4.505365
      px      :     1.391140
      py      :     1.769229
      dz2     :     0.009179  d :     0.027749
      dxz     :     0.009846
      dyz     :     0.003862
      dx2y2   :     0.003108
      dxy     :     0.001755

  5 O s       :     3.846095  s :     3.846095
      pz      :     1.420555  p :     4.471690
      px      :     1.616833
      py      :     1.434302
      dz2     :     0.004535  d :     0.027649
      dxz     :     0.003134
      dyz     :     0.005644
      dx2y2   :     0.005580
      dxy     :     0.008755

  6 N s       :     3.351838  s :     3.351838
      pz      :     1.274460  p :     4.057359
      px      :     1.174531
      py      :     1.608368
      dz2     :     0.008059  d :     0.038523
      dxz     :     0.012612
      dyz     :     0.005093
      dx2y2   :     0.006535
      dxy     :     0.006224

  7 N s       :     3.342131  s :     3.342131
      pz      :     1.171660  p :     4.056463
      px      :     1.158396
      py      :     1.726407
      dz2     :     0.011702  d :     0.039197
      dxz     :     0.012216
      dyz     :     0.002619
      dx2y2   :     0.007194
      dxy     :     0.005466

  8 N s       :     3.517991  s :     3.517991
      pz      :     1.082414  p :     3.423609
      px      :     1.079126
[...]
114:   1413.27   0.016788   84.84  0.003707  (-0.046211  0.038335  0.010100)
115:   1452.66   0.006088   30.76  0.001308  ( 0.034311  0.009927  0.005655)
116:   1462.91   0.005080   25.67  0.001084  (-0.030387  0.001569 -0.012559)
117:   1489.57   0.104782  529.52  0.021952  ( 0.144577  0.023871  0.021895)
118:   1497.89   0.004047   20.45  0.000843  (-0.000174 -0.001440  0.029002)
119:   1501.10   0.000905    4.58  0.000188  ( 0.009851  0.008839  0.003614)
120:   1509.73   0.002888   14.60  0.000597  (-0.000066 -0.007067 -0.023390)
121:   1518.22   0.151651  766.38  0.031171  (-0.166270  0.027681  0.052529)
122:   1520.99   0.029188  147.51  0.005989  ( 0.076292  0.000110 -0.012963)
123:   1544.41   0.012995   65.67  0.002626  (-0.035263  0.004157  0.036946)
124:   1563.61   0.011606   58.65  0.002316  (-0.037885 -0.018445 -0.023257)
125:   1585.35   0.063593  321.37  0.012518  (-0.099663 -0.026431 -0.043435)
126:   1590.91   0.020257  102.37  0.003973  (-0.062059 -0.009573  0.005521)
127:   1624.95   0.059796  302.18  0.011483  (-0.084728 -0.019532 -0.062635)
128:   1646.77   0.108205  546.82  0.020505  (-0.140799 -0.022869 -0.012550)
129:   1677.95   0.100081  505.77  0.018613  ( 0.124309  0.044009  0.034976)
130:   1681.70   0.034849  176.11  0.006467  (-0.026976 -0.043803 -0.061809)
131:   1755.43   0.070884  358.22  0.012601  (-0.055673  0.022017  0.094957)
132:   1771.08   0.035432  179.06  0.006243  (-0.056248 -0.022533 -0.050711)
133:   1786.32   0.055327  279.60  0.009665  (-0.062186 -0.036403 -0.066882)
134:   2909.43   0.010935   55.26  0.001173  ( 0.021242  0.011987 -0.024041)
135:   2934.14   0.008790   44.42  0.000935  ( 0.019828 -0.020656 -0.010727)
136:   3000.54   0.002142   10.83  0.000223  (-0.002775  0.012042  0.008374)
137:   3018.35   0.003678   18.59  0.000380  ( 0.014813  0.006266 -0.011025)
138:   3039.24   0.000540    2.73  0.000055  (-0.002282 -0.003816  0.005974)
139:   3053.04   0.003837   19.39  0.000392  (-0.018418 -0.006741 -0.002737)
140:   3088.63   0.006276   31.71  0.000634  ( 0.011876  0.008417  0.020547)
141:   3101.61   0.002232   11.28  0.000225  ( 0.013160  0.002154 -0.006833)
142:   3117.67   0.004392   22.20  0.000440  (-0.020511  0.000497  0.004322)
143:   3132.87   0.003388   17.12  0.000337  ( 0.000111 -0.004618 -0.017779)
144:   3147.53   0.003529   17.83  0.000350  ( 0.017236 -0.001471 -0.007113)
145:   3162.88   0.001788    9.03  0.000176  ( 0.007409 -0.002873 -0.010641)
146:   3517.95   0.042456  214.56  0.003766  (-0.059089 -0.010081 -0.013151)
147:   3525.51   0.004129   20.87  0.000366  ( 0.000296 -0.001944 -0.019017)
148:   3533.68   0.016892   85.37  0.001492  (-0.035559 -0.013739 -0.006210)
149:   3574.41   0.007583   38.32  0.000662  (-0.008299  0.007975  0.023011)
150:   3645.64   0.005869   29.66  0.000502  ( 0.009485 -0.007228 -0.018979)
151:   3673.87   0.007629   38.55  0.000648  ( 0.009675 -0.019523  0.013162)
152:   3674.90   0.010323   52.17  0.000877  ( 0.016547 -0.001138 -0.024526)

* The epsilon (eps) is given for a Dirac delta lineshape.
** The dipole moment derivative (T) already includes vibrational overlap.

The first frequency considered to be a vibration is 6
The total number of vibrations considered is 147


--------------------------
THERMOCHEMISTRY AT 298.15K
--------------------------

Temperature         ...   298.15 K
Pressure            ...     1.00 atm
Total Mass          ...   441.40 AMU
Quasi RRHO          ...     True
Cut-Off Frequency   ...     1.00 cm^-1

Throughout the following assumptions are being made:
  (1) The electronic state is orbitally nondegenerate
  (2) There are no thermally accessible electronically excited states
  (3) Hindered rotations indicated by low frequency modes are not
      treated as such but are treated as vibrations and this may
      cause some error
  (4) All equations used are the standard statistical mechanics
      equations for an ideal gas
  (5) All vibrations are strictly harmonic

freq.       6.18  E(vib)   ...       0.58 
freq.      10.30  E(vib)   ...       0.58 
freq.      17.80  E(vib)   ...       0.57 
freq.      19.10  E(vib)   ...       0.57 
freq.      25.92  E(vib)   ...       0.56 
freq.      35.04  E(vib)   ...       0.54 
freq.      40.65  E(vib)   ...       0.54 
freq.      52.19  E(vib)   ...       0.52 
freq.      55.39  E(vib)   ...       0.52 
freq.      63.67  E(vib)   ...       0.51 
freq.      74.44  E(vib)   ...       0.49 
freq.      93.99  E(vib)   ...       0.47 
freq.      95.24  E(vib)   ...       0.47 
freq.     109.01  E(vib)   ...       0.45 
freq.     117.41  E(vib)   ...       0.44 
freq.     143.25  E(vib)   ...       0.41 
freq.     143.75  E(vib)   ...       0.41 
freq.     146.82  E(vib)   ...       0.41 
freq.     178.74  E(vib)   ...       0.37 
freq.     193.25  E(vib)   ...       0.36 
freq.     202.67  E(vib)   ...       0.35 
freq.     234.03  E(vib)   ...       0.32 
freq.     243.98  E(vib)   ...       0.31 
freq.     271.68  E(vib)   ...       0.29 
freq.     325.29  E(vib)   ...       0.24 
freq.     335.64  E(vib)   ...       0.24 
freq.     342.48  E(vib)   ...       0.23 
freq.     343.52  E(vib)   ...       0.23 
freq.     352.47  E(vib)   ...       0.23 
freq.     356.63  E(vib)   ...       0.22 
freq.     396.04  E(vib)   ...       0.20 
freq.     424.59  E(vib)   ...       0.18 
freq.     430.89  E(vib)   ...       0.18 
freq.     443.82  E(vib)   ...       0.17 
freq.     452.72  E(vib)   ...       0.16 
freq.     460.22  E(vib)   ...       0.16 
freq.     467.52  E(vib)   ...       0.16 
freq.     480.07  E(vib)   ...       0.15 
freq.     505.32  E(vib)   ...       0.14 
freq.     511.58  E(vib)   ...       0.14 
freq.     519.37  E(vib)   ...       0.13 
freq.     528.75  E(vib)   ...       0.13 
freq.     542.41  E(vib)   ...       0.12 
freq.     564.41  E(vib)   ...       0.11 
freq.     567.28  E(vib)   ...       0.11 
freq.     570.89  E(vib)   ...       0.11 
freq.     588.95  E(vib)   ...       0.10 
freq.     602.12  E(vib)   ...       0.10 
freq.     622.49  E(vib)   ...       0.09 
freq.     631.73  E(vib)   ...       0.09 
freq.     653.04  E(vib)   ...       0.08 
freq.     654.98  E(vib)   ...       0.08 
freq.     658.24  E(vib)   ...       0.08 
freq.     658.60  E(vib)   ...       0.08 
freq.     673.81  E(vib)   ...       0.08 
freq.     677.34  E(vib)   ...       0.08 
freq.     712.09  E(vib)   ...       0.07 
freq.     726.24  E(vib)   ...       0.06 
freq.     732.69  E(vib)   ...       0.06 
freq.     747.01  E(vib)   ...       0.06 
freq.     763.35  E(vib)   ...       0.06 
freq.     780.21  E(vib)   ...       0.05 
freq.     782.60  E(vib)   ...       0.05 
freq.     787.98  E(vib)   ...       0.05 
freq.     811.42  E(vib)   ...       0.05 
freq.     823.00  E(vib)   ...       0.05 
freq.     856.88  E(vib)   ...       0.04 
freq.     871.63  E(vib)   ...       0.04 
freq.     884.95  E(vib)   ...       0.04 
freq.     892.49  E(vib)   ...       0.03 
freq.     915.29  E(vib)   ...       0.03 
freq.     921.86  E(vib)   ...       0.03 
freq.     939.66  E(vib)   ...       0.03 
freq.     944.14  E(vib)   ...       0.03 
freq.     971.59  E(vib)   ...       0.03 
freq.    1003.95  E(vib)   ...       0.02 
freq.    1019.91  E(vib)   ...       0.02 
freq.    1035.57  E(vib)   ...       0.02 
freq.    1051.50  E(vib)   ...       0.02 
freq.    1084.11  E(vib)   ...       0.02 
freq.    1098.74  E(vib)   ...       0.02 
freq.    1107.92  E(vib)   ...       0.02 
freq.    1128.85  E(vib)   ...       0.01 
freq.    1132.00  E(vib)   ...       0.01 
freq.    1143.41  E(vib)   ...       0.01 
freq.    1153.03  E(vib)   ...       0.01 
freq.    1161.44  E(vib)   ...       0.01 
freq.    1177.69  E(vib)   ...       0.01 
freq.    1189.78  E(vib)   ...       0.01 
freq.    1208.29  E(vib)   ...       0.01 
freq.    1214.87  E(vib)   ...       0.01 
freq.    1224.58  E(vib)   ...       0.01 
freq.    1234.85  E(vib)   ...       0.01 
freq.    1251.28  E(vib)   ...       0.01 
freq.    1266.97  E(vib)   ...       0.01 
freq.    1294.56  E(vib)   ...       0.01 
freq.    1300.79  E(vib)   ...       0.01 
freq.    1318.77  E(vib)   ...       0.01 
freq.    1319.97  E(vib)   ...       0.01 
freq.    1331.00  E(vib)   ...       0.01 
freq.    1331.71  E(vib)   ...       0.01 
freq.    1337.54  E(vib)   ...       0.01 
freq.    1345.37  E(vib)   ...       0.01 
freq.    1366.63  E(vib)   ...       0.01 
freq.    1369.22  E(vib)   ...       0.01 
freq.    1373.74  E(vib)   ...       0.01 
freq.    1392.34  E(vib)   ...       0.00 
freq.    1392.44  E(vib)   ...       0.00 
freq.    1413.27  E(vib)   ...       0.00 
freq.    1452.66  E(vib)   ...       0.00 
freq.    1462.91  E(vib)   ...       0.00 
freq.    1489.57  E(vib)   ...       0.00 
freq.    1497.89  E(vib)   ...       0.00 
freq.    1501.10  E(vib)   ...       0.00 
freq.    1509.73  E(vib)   ...       0.00 
freq.    1518.22  E(vib)   ...       0.00 
freq.    1520.99  E(vib)   ...       0.00 
freq.    1544.41  E(vib)   ...       0.00 
freq.    1563.61  E(vib)   ...       0.00 
freq.    1585.35  E(vib)   ...       0.00 
freq.    1590.91  E(vib)   ...       0.00 
freq.    1624.95  E(vib)   ...       0.00 
freq.    1646.77  E(vib)   ...       0.00 
freq.    1677.95  E(vib)   ...       0.00 
freq.    1681.70  E(vib)   ...       0.00 
freq.    1755.43  E(vib)   ...       0.00 
freq.    1771.08  E(vib)   ...       0.00 
freq.    1786.32  E(vib)   ...       0.00 
freq.    2909.43  E(vib)   ...       0.00 
freq.    2934.14  E(vib)   ...       0.00 
freq.    3000.54  E(vib)   ...       0.00 
freq.    3018.35  E(vib)   ...       0.00 
freq.    3039.24  E(vib)   ...       0.00 
freq.    3053.04  E(vib)   ...       0.00 
freq.    3088.63  E(vib)   ...       0.00 
freq.    3101.61  E(vib)   ...       0.00 
freq.    3117.67  E(vib)   ...       0.00 
freq.    3132.87  E(vib)   ...       0.00 
freq.    3147.53  E(vib)   ...       0.00 
freq.    3162.88  E(vib)   ...       0.00 
freq.    3517.95  E(vib)   ...       0.00 
freq.    3525.51  E(vib)   ...       0.00 
freq.    3533.68  E(vib)   ...       0.00 
freq.    3574.41  E(vib)   ...       0.00 
freq.    3645.64  E(vib)   ...       0.00 
freq.    3673.87  E(vib)   ...       0.00 
freq.    3674.90  E(vib)   ...       0.00 

------------
INNER ENERGY
------------

The inner energy is: U= E(el) + E(ZPE) + E(vib) + E(rot) + E(trans)
    E(el)   - is the total energy from the electronic structure calculation
              = E(kin-el) + E(nuc-el) + E(el-el) + E(nuc-nuc)
    E(ZPE)  - the the zero temperature vibrational energy from the frequency calculation
    E(vib)  - the the finite temperature correction to E(ZPE) due to population
              of excited vibrational states
    E(rot)  - is the rotational thermal energy
    E(trans)- is the translational thermal energy

Summary of contributions to the inner energy U:
Electronic energy                ...  -1569.47140582 Eh
Zero point energy                ...      0.38408157 Eh     241.01 kcal/mol
Thermal vibrational correction   ...      0.02690240 Eh      16.88 kcal/mol
Thermal rotational correction    ...      0.00141627 Eh       0.89 kcal/mol
Thermal translational correction ...      0.00141627 Eh       0.89 kcal/mol
-----------------------------------------------------------------------
Total thermal energy                  -1569.05758931 Eh


Summary of corrections to the electronic energy:
(perhaps to be used in another calculation)
Total thermal correction                  0.02973494 Eh      18.66 kcal/mol
Non-thermal (ZPE) correction              0.38408157 Eh     241.01 kcal/mol
-----------------------------------------------------------------------
Total correction                          0.41381651 Eh     259.67 kcal/mol


--------
ENTHALPY
--------

The enthalpy is H = U + kB*T
                kB is Boltzmann's constant
Total thermal energy              ...  -1569.05758931 Eh 
Thermal Enthalpy correction       ...      0.00094421 Eh       0.59 kcal/mol
-----------------------------------------------------------------------
Total Enthalpy                    ...  -1569.05664510 Eh


Note: Only C1 symmetry has been detected, increase convergence thresholds 
      if your molecule has a higher symmetry. Symmetry factor of 1.0 is   
      used for the rotational entropy correction. 
 

Note: Rotational entropy computed according to Herzberg 
Infrared and Raman Spectra, Chapter V,1, Van Nostrand Reinhold, 1945 
Point Group:  C1, Symmetry Number:   1  
Rotational constants in cm-1:     0.010523     0.001115     0.001098 

Vibrational entropy computed according to the QRRHO of S. Grimme
Chem.Eur.J. 2012 18 9955 using a reference frequency of 100.0 cm-1


-------
ENTROPY
-------

The entropy contributions are T*S = T*(S(el)+S(vib)+S(rot)+S(trans))
     S(el)   - electronic entropy
     S(vib)  - vibrational entropy
     S(rot)  - rotational entropy
     S(trans)- translational entropy
The entropies will be listed as multiplied by the temperature to get
units of energy

Electronic entropy                ...      0.00000000 Eh      0.00 kcal/mol
Vibrational entropy               ...      0.05009628 Eh     31.44 kcal/mol
Rotational entropy                ...      0.01808738 Eh     11.35 kcal/mol
Translational entropy             ...      0.02097411 Eh     13.16 kcal/mol
-----------------------------------------------------------------------
Final entropy term                ...      0.08915777 Eh     55.95 kcal/mol

In case the symmetry of your molecule has not been determined correctly
or in case you have a reason to use a different symmetry number we print 
out the resulting rotational entropy values for sn=1,12:

 non-linear molecules -----------------------------------
|  sn= 1 | S(rot)=       0.01808738 Eh     11.35 kcal/mol|
|  sn= 2 | S(rot)=       0.01743293 Eh     10.94 kcal/mol|
|  sn= 3 | S(rot)=       0.01705010 Eh     10.70 kcal/mol|
|  sn= 4 | S(rot)=       0.01677847 Eh     10.53 kcal/mol|
|  sn= 5 | S(rot)=       0.01656778 Eh     10.40 kcal/mol|
|  sn= 6 | S(rot)=       0.01639564 Eh     10.29 kcal/mol|
|  sn= 7 | S(rot)=       0.01625009 Eh     10.20 kcal/mol|
|  sn= 8 | S(rot)=       0.01612401 Eh     10.12 kcal/mol|
|  sn= 9 | S(rot)=       0.01601281 Eh     10.05 kcal/mol|
|  sn=10 | S(rot)=       0.01591333 Eh      9.99 kcal/mol|
|  sn=11 | S(rot)=       0.01582334 Eh      9.93 kcal/mol|
|  sn=12 | S(rot)=       0.01574118 Eh      9.88 kcal/mol|
 linear molecules ---------------------------------------
|  Dinfh | S(rot)=       0.01175949 Eh      7.38 kcal/mol|
|  Cinfv | S(rot)=       0.01241395 Eh      7.79 kcal/mol|
 --------------------------------------------------------


-------------------
GIBBS FREE ENERGY
-------------------

The Gibbs free energy is G = H - T*S

Total enthalpy                    ...  -1569.05664510 Eh 
Total entropy correction          ...     -0.08915777 Eh    -55.95 kcal/mol
-----------------------------------------------------------------------
Final Gibbs free energy         ...  -1569.14580287 Eh

For completeness - the Gibbs free energy minus the electronic energy
G-E(el)                           ...      0.32560294 Eh    204.32 kcal/mol


Maximum memory used throughout the entire PROP-calculation: 155.3 MB

--------------------------------
SUGGESTED CITATIONS FOR THIS RUN
--------------------------------

Below you find a list of papers that are relevant to this ORCA run
We neither can nor want to force you to cite these papers, but we appreciate if you do
You receive ORCA, which is the product of decades of hard work by many enthusiastic individuals, for free
The only thing we kindly ask in return is that you cite our papers,
We deeply appreciate it, if you show your appreciation for ORCA by not just citing the generic ORCA reference.

Please note that relegating all ORCA citations to the supporting information does *not* help us.
SI sections are not indexed - citations you put there will not count into any citation statistics
But we need these citations in order to attract the funding resources that allow us to do what we are doing

Therefore, if you are a happy ORCA user, please consider citing a few of the papers listed below in the main body of your paper

In addition to the list printed below, the program has created the file m1_00_Vitamin_B9-B97-3C-TZ.bibtex that contains the list in bibtex format
You can import this file easily into all common literature databanks and citation aid programs


List of essential papers. We consider these as the minimum necessary citations

  1. Neese,F.
     Software update: the ORCA program system, version 5.0
     WIRES Comput. Molec. Sci., 2022 12(1)e1606
     doi.org/10.1002/wcms.1606

List of papers to cite with high priority. The work reported in these papers was absolutely
necessary for this run to complete.
Our perspective: the developers of density functionals and basis sets usually get cited in chemistry papers
Good! But without the algorithms to do something with them, the functionals or basis sets would not do anything.
Hence, in our opinion, the algorithm design and method developments papers are equally worthy of getting cited

  1. Neese,F.
     An improvement of the resolution of the identity approximation for the formation of the Coulomb matrix
     J. Comp. Chem., 2003 24(14)1740-1747
     doi.org/10.1002/jcc.10318
  2. Bykov,D.; Petrenko,T.; Izsak,R.; Kossmann,S.; Becker,U.; Valeev,E.; Neese,F.
     Efficient implementation of the analytic second derivatives of Hartree-Fock and hybrid DFT energies: a detailed analysis of different approximations
     Molec. Phys., 2015 113 1961-1977
     doi.org/10.1080/00268976.2015.1025114
  3. Neese,F.
     The SHARK Integral Generation and Digestion System
     J. Comp. Chem., 2022  1-16
     doi.org/10.1002/jcc.26942
  4. Grimme,S.; Antony,J.; Ehrlich,S.; Krieg,H.
     A consistent and accurate ab initio parametrization of density functional dispersion correction (DFT-D) for the 94 elements H-Pu
     J. Chem. Phys., 2010 132 154104
     doi.org/10.1063/1.3382344
  5. Grimme,S.; Ehrlich,S.; Goerigk,L.
     Effect of the damping function in dispersion corrected density functional theory
     J. Comput. Chem., 2011 32(7)1456-1465
     doi.org/10.1002/jcc.21759

List of suggested additional citations. These are papers that are important in the 'surrounding' of 
of this run, or papers that preceded the highly important papers. If you like your results we are grateful for a citation.

  1. Neese,F.
     The ORCA program system
     WIRES Comput. Molec. Sci., 2012 2(1)73-78
     doi.org/10.1002/wcms.81
  2. Neese,F.
     Software update: the ORCA program system, version 4.0
     WIRES Comput. Molec. Sci., 2018 8(1)1-6
     doi.org/10.1002/wcms.1327
  3. Neese,F.; Wennmohs,F.; Becker,U.; Riplinger,C.
     The ORCA quantum chemistry program package
     J. Chem. Phys., 2020 152 Art. No. L224108
     doi.org/10.1063/5.0004608

List of optional additional citations

  1. Neese,F.
     Approximate second-order SCF convergence for spin unrestricted wavefunctions
     Chem. Phys. Lett., 2000 325(1-3)93-98
     doi.org/10.1016/s0009-2614(00)00662-x

Timings for individual modules:

Sum of individual times          ...     1883.365 sec (=  31.389 min)
Startup calculation              ...      249.051 sec (=   4.151 min)  13.2 %
SCF iterations                   ...      743.816 sec (=  12.397 min)  39.5 %
Property integrals               ...      181.498 sec (=   3.025 min)   9.6 %
SCF Response                     ...      312.605 sec (=   5.210 min)  16.6 %
Property calculations            ...       69.944 sec (=   1.166 min)   3.7 %
SCF Gradient evaluation          ...      324.753 sec (=   5.413 min)  17.2 %
Geometry relaxation              ...        1.696 sec (=   0.028 min)   0.1 %
                             ****ORCA TERMINATED NORMALLY****
TOTAL RUN TIME: 0 days 0 hours 31 minutes 40 seconds 765 msec
