
                                 *****************
                                 * O   R   C   A *
                                 *****************

                                            #,                                       
                                            ###                                      
                                            ####                                     
                                            #####                                    
                                            ######                                   
                                           ########,                                 
                                     ,,################,,,,,                         
                               ,,#################################,,                 
                          ,,##########################################,,             
                       ,#########################################, ''#####,          
                    ,#############################################,,   '####,        
                  ,##################################################,,,,####,       
                ,###########''''           ''''###############################       
              ,#####''   ,,,,##########,,,,          '''####'''          '####       
            ,##' ,,,,###########################,,,                        '##       
           ' ,,###''''                  '''############,,,                           
         ,,##''                                '''############,,,,        ,,,,,,###''
      ,#''                                            '''#######################'''  
     '                                                          ''''####''''         
             ,#######,   #######,   ,#######,      ##                                
            ,#'     '#,  ##    ##  ,#'     '#,    #''#        ,####,   ,####,        
            ##       ##  ##   ,#'  ##            #'  '#       #'       #'  '#        
            ##       ##  #######   ##           ,######,      #####,   #    #        
            '#,     ,#'  ##    ##  '#,     ,#' ,#      #,     #,   #   #,  ,#        
             '#######'   ##     ##  '#######'  #'      '#     '####' # '####'        



                #########################################################
                #                        -***-                          #
                #          Department of theory and spectroscopy        #
                #                                                       #
                #                      Frank Neese                      #
                #                                                       #
                #     Directorship, Architecture, Infrastructure        #
                #                    SHARK, DRIVERS                     #
                #        Core code/Algorithms in most modules           #
                #                                                       #
                #        Max Planck Institute fuer Kohlenforschung      #
                #                Kaiser Wilhelm Platz 1                 #
                #                 D-45470 Muelheim/Ruhr                 #
                #                      Germany                          #
                #                                                       #
                #                  All rights reserved                  #
                #                        -***-                          #
                #########################################################


                         Program Version 6.0.1  -  RELEASE   -


 With contributions from (in alphabetic order):
[Max-Planck-Institut fuer Kohlenforschung]                               
  Daniel Aravena         : Magnetic Suceptibility                        
  Michael Atanasov       : Ab Initio Ligand Field Theory (pilot matlab implementation)
  Alexander A. Auer      : GIAO ZORA, VPT2 properties, NMR spectrum      
  Ute Becker             : All parallelization in ORCA, NUMFREQ, NUMCALC 
  Giovanni Bistoni       : ED, misc. LED, open-shell LED, HFLD           
  Martin Brehm           : Molecular dynamics                            
  Dmytro Bykov           : pre 5.0 version of the SCF Hessian            
  Marcos Casanova-Páez   : Triplet and SCS-CIS(D). UHF-(DLPNO)-IP/EA/STEOM-CCSD. UHF-CVS-IP/STEOM-CCSD   
  Vijay G. Chilkuri      : MRCI spin determinant printing, contributions to CSF-ICE 
  Pauline Colinet        : FMM embedding                                 
  Dipayan Datta          : RHF DLPNO-CCSD density                        
  Achintya Kumar Dutta   : EOM-CC, STEOM-CC                              
  Nicolas Foglia         : Exact transition moments, OPA infrastructure, MCD improvements    
  Dmitry Ganyushin       : Spin-Orbit,Spin-Spin,Magnetic field MRCI      
  Miquel Garcia-Rates    : C-PCM and meta-GGA Hessian, CCSD/C-PCM, Gaussian charge scheme 
  Tiago L. C. Gouveia    : GS-ROHF, GS-ROCIS                             
  Yang Guo               : DLPNO-NEVPT2, F12-NEVPT2, CIM, IAO-localization        
  Andreas Hansen         : Spin unrestricted coupled pair/coupled cluster methods 
  Ingolf Harden          : AUTO-CI MPn and infrastructure                
  Benjamin Helmich-Paris : MC-RPA, TRAH-(SCF,CASSCF), AVAS, COSX integrals, SCF dyn. polar. 
  Lee Huntington         : MR-EOM, pCC                                   
  Robert Izsak           : Overlap fitted RIJCOSX, COSX-SCS-MP3, EOM     
  Riya Kayal             : Wick's Theorem for AUTO-CI, AUTO-CI UHF-CCSDT 
  Emily Kempfer          : AUTO-CI, RHF CISDT and CCSDT                  
  Christian Kollmar      : KDIIS, OOCD, Brueckner-CCSD(T), CCSD density, CASPT2, CASPT2-K, improved NEVPT2 
  Axel Koslowski         : Symmetry handling                             
  Simone Kossmann        : meta-GGA functionals, TD-DFT gradient, OOMP2, (MP2 Hessian; deprecated post 5.0) 
  Lucas Lang             : DCDCAS                                        
  Marvin Lechner         : AUTO-CI (C++ implementation), FIC-MRCC        
  Spencer Leger          : CASSCF response                               
  Dagmar Lenk            : GEPOL surface, SMD, ORCA-2-JSON               
  Dimitrios Liakos       : Extrapolation schemes; Compound Job, initial MDCI parallelization 
  Dimitrios Manganas     : Further ROCIS development; embedding schemes. LFT, Crystal Embedding 
  Dimitrios Pantazis     : SARC Basis sets                               
  Anastasios Papadopoulos: AUTO-CI, single reference methods and gradients 
  Taras Petrenko         : pre 6.0 DFT Hessian and TD-DFT gradient, (ASA, deprecated), ECA, 1-Electron XAS/XES, NRVS 
  Peter Pinski           : DLPNO-MP2, DLPNO-MP2 Gradient                 
  Christoph Reimann      : Effective Core Potentials                     
  Marius Retegan         : Local ZFS, SOC                                
  Christoph Riplinger    : Optimizer, TS searches, QM/MM, DLPNO-CCSD(T), (RO)-DLPNO pert. Triples 
  Michael Roemelt        : Original ROCIS implementation                 
  Masaaki Saitow         : Open-shell DLPNO-CCSD energy and density      
  Barbara Sandhoefer     : DKH picture change effects                    
  Kantharuban Sivalingam : CASSCF convergence/infrastructure, NEVPT2 and variants, FIC-MRCI 
  Bernardo de Souza      : ESD, SOC TD-DFT                               
  Georgi L. Stoychev     : AutoAux, RI-MP2 NMR, DLPNO-MP2 response, X2C  
  Van Anh Tran           : RI-MP2 g-tensors                              
  Willem Van den Heuvel  : Paramagnetic NMR                              
  Zikuan Wang            : NOTCH, Electric field optimization            
  Frank Wennmohs         : Technical directorship and infrastructure     
  Hang Xu                : AUTO-CI-Response properties                   
                                                                         
[FACCTs GmbH]                                                            
  Markus Bursch, Miquel Garcia-Rates, Christoph Riplinger, Bernardo de Souza, Georgi L. Stoychev 
                                                                 
  APM, Basis sets (HGBS, AHGBS, def-TZVP (Ac-Lr), def2-XVPD (La-Lu)), CI-OPT, improved COSX, DLPNO-Multilevel,           
  DOCKER, DRACO, updates on ESD, GOAT, IRC, LR-CPCM, MBIS, meta-GGA TD-DFT gradient, ML-optimized integration grids, 
  MM, NACMEs, nearIR, NEB, NEB-TS, NL-DFT gradient (VV10), 2- and 3-layer-ONIOM, interface openCOSMO-RS, QMMM,   
  Crystal-QMMM, SF, symmetry and pop. for TD-DFT, r2SCAN hybrids, SOLVATOR                                   
                                                                         
[Other institutions]                                                     
  V. Asgeirsson          : NEB                                           
  Christoph Bannwarth    : sTDA-DFT, sTD-DFT, PBEh-3c, B97-3c, D3        
  Sebastian Ehlert       : rSCAN, r2SCAN, r2SCAN-3c, D4, dhf basis sets  
  Marvin Friede          : D4 for Fr, Ra, Ac-Lr                          
  Lars Goerigk           : TD-DFT with DH, B97 family of functionals     
  Stefan Grimme          : VdW corrections, initial TS optimization, DFT functionals, gCP, sTDA/sTD-DF 
  Waldemar Hujo          : DFT-NL                                        
  H. Jonsson             : NEB                                           
  Holger Kruse           : gCP                                           
  Marcel Mueller         : wB97X-3c, vDZP basis set                      
  Hagen Neugebauer       : wr2SCAN                                       
  Tobias Risthaus        : range-separated hybrid DFT                    
  Lukas Wittmann         : regularized MP2, r2SCAN double-hybrids, wr2SCAN        
                                                                         
We gratefully acknowledge several colleagues who have allowed us to      
interface, adapt or use parts of their codes:                            
  Ed Valeev, F. Pavosevic, A. Kumar             : LibInt (2-el integral package), F12 methods 
  Garnet Chan, S. Sharma, J. Yang, R. Olivares  : DMRG                   
  Ulf Ekstrom                                   : XCFun DFT Library      
  Mihaly Kallay                                 : mrcc  (arbitrary order and MRCC methods)
  Frank Weinhold                                : gennbo (NPA and NBO analysis)           
  Simon Mueller                                 : openCOSMO-RS                            
  Christopher J. Cramer and Donald G. Truhlar   : smd solvation model                     
  S Lehtola, MJT Oliveira, MAL Marques          : LibXC Library                           
  Liviu Ungur et al                             : ANISO software                          


 Your calculation uses the libint2 library for the computation of 2-el integrals
 For citations please refer to: http://libint.valeyev.net

 Your ORCA version has been built with support for libXC version: 6.2.2
 For citations please refer to: https://libxc.gitlab.io

 This ORCA versions uses:
   CBLAS   interface :  Fast vector & matrix operations
   LAPACKE interface :  Fast linear algebra routines
   SCALAPACK package :  Parallel linear algebra routines
   Shared memory     :  Shared parallel matrices
   BLAS/LAPACK       :  OpenBLAS 0.3.27  USE64BITINT DYNAMIC_ARCH NO_AFFINITY Zen SINGLE_THREADED
        Core in use  :  Zen
   Copyright (c) 2011-2014, The OpenBLAS Project


NOTE: MaxCore=6000 MB was set to SCF,MP2,MDCI,CIPSI,MRCI and CIS
      => If you want to overwrite this, your respective input block should be placed after the MaxCore statement
Your calculation utilizes the atom-pairwise dispersion correction
with the Becke-Johnson damping scheme (D3BJ)


Your calculation employs the composite approach B97-3c by Grimme and coworkers.
For the correct reference, please check the publication list of the Grimme group:
http://www.thch.uni-bonn.de/tc/index.php?section=publikationen&subsection=grimme#2017
   

XCFun DFT library Copyright 2009-2010 Ulf Ekstrom and contributors.
See http://admol.org/xcfun for more information.
This is free software; see the source code for copying conditions.
There is ABSOLUTELY NO WARRANTY; not even for MERCHANTABILITY or FITNESS FOR A PARTICULAR PURPOSE.
For details see the documentation.
Scientific users of this library should cite U. Ekstrom, L. Visscher, R. Bast, A. J. Thorvaldsen and K. Ruud;
J.Chem.Theor.Comp. 2010, DOI: 10.1021/ct100117s
XCFun Version 0.99 

================================================================================

----- Orbital basis set information -----
Your calculation utilizes the basis: def2-mTZVP
----- AuxJ basis set information -----
Your calculation utilizes the basis: def2-mTZVP/J
================================================================================
                                        WARNINGS
                       Please study these warnings very carefully!
================================================================================


WARNING: Geometry Optimization
  ===> : Switching off AutoStart
         For restart on a previous wavefunction, please use MOREAD

================================================================================
                                       INPUT FILE
================================================================================
NAME = m1_00_Vitamin_B7-B97-3C-TZ.inp
|  1> %pal nprocs 16 end
|  2> %MaxCore 6000
|  3> # put your comments here
|  4> ! B97-3C  OPT  FREQ DEFGRID3 NOTRAH CHELPG
|  5> %scf MaxIter 800 end
|  6> %output
|  7> Print [P_Hirshfeld] 1
|  8> end
|  9> %geom
| 10> MaxIter 3000
| 11>  TolE 1e-6 #TolE 5e-6 Energy change (a.u.)
| 12>  TolRMSG 3e-5 #TolRMSG 1e-4 RMS gradient (a.u.)
| 13>  TolMaxG 1e-4 #TolMaxG 3e-3 Max. element of gradient (a.u.)
| 14>  TolRMSD 2e-3 #TolRMSD 2e-3 RMS displacement (a.u.)
| 15>  TolMaxD 4e-3 #TolMaxD 4e-3 Max. displacement (a.u.)
| 16> end
| 17> * xyz 0 1
| 18>  S     -2.461300000      1.956200000      1.026400000
| 19>  O     -3.028200000     -2.774500000      0.786200000
| 20>  O      5.960100000     -0.728600000     -0.862500000
| 21>  O      5.234500000     -0.156200000      1.211800000
| 22>  N     -1.638900000     -1.077600000     -0.037900000
| 23>  N     -3.865300000     -0.876000000     -0.301600000
| 24>  C     -1.796300000      0.156100000     -0.784700000
| 25>  C     -3.327200000      0.332500000     -0.894600000
| 26>  C     -1.175900000      1.386100000     -0.116400000
| 27>  C     -3.788100000      1.577500000     -0.140200000
| 28>  C      0.151500000      1.155000000      0.586400000
| 29>  C      1.253600000      0.636900000     -0.341000000
| 30>  C     -2.864100000     -1.702600000      0.219600000
| 31>  C      2.626500000      0.437600000      0.307500000
| 32>  C      3.701800000     -0.023400000     -0.675700000
| 33>  C      5.017300000     -0.298900000      0.016700000
| 34>  H     -1.349000000     -0.016200000     -1.770400000
| 35>  H     -3.667100000      0.361900000     -1.935300000
| 36>  H     -1.054200000      2.175100000     -0.868600000
| 37>  H     -3.879500000      2.424900000     -0.827200000
| 38>  H     -4.742800000      1.444100000      0.377000000
| 39>  H      0.493600000      2.100200000      1.028600000
| 40>  H      0.037100000      0.453600000      1.423000000
| 41>  H     -0.744800000     -1.496100000      0.198100000
| 42>  H     -4.853800000     -1.105400000     -0.275200000
| 43>  H      0.949500000     -0.316000000     -0.787800000
| 44>  H      1.364300000      1.343000000     -1.174300000
| 45>  H      2.944100000      1.377200000      0.777000000
| 46>  H      2.530800000     -0.295400000      1.118700000
| 47>  H      3.866200000      0.749000000     -1.434700000
| 48>  H      3.379200000     -0.946900000     -1.168800000
| 49>  H      6.817600000     -0.906600000     -0.420500000
| 50> *
| 51> 
| 52> 
| 53> 
| 54> 
| 55>                          ****END OF INPUT****
================================================================================

                       *****************************
                       * Geometry Optimization Run *
                       *****************************

Geometry optimization settings:
Update method            Update   .... BFGS
Choice of coordinates    CoordSys .... (2022) Redundant Internals
Initial Hessian          InHess   .... Almloef's Model
Max. no of cycles        MaxIter  .... 3000

Convergence Tolerances:
Energy Change            TolE     ....  1.0000e-06 Eh
Max. Gradient            TolMAXG  ....  1.0000e-04 Eh/bohr
RMS Gradient             TolRMSG  ....  3.0000e-05 Eh/bohr
Max. Displacement        TolMAXD  ....  4.0000e-03 bohr
RMS Displacement         TolRMSD  ....  2.0000e-03 bohr
Strict Convergence                .... False

------------------------------------------------------------------------------
                        ORCA OPTIMIZATION COORDINATE SETUP
------------------------------------------------------------------------------

The optimization will be done in redundant internal coordinates (2022)
Making redundant internal coordinates   ...  (2022 redundants) done
Evaluating the initial hessian          ...  (Almloef) done
Evaluating the coordinates              ...  done
Calculating the B-matrix                .... done
Calculating the G-matrix                .... done
Diagonalizing the G-matrix              .... done
Small eigenvalue found = 3.961e-03
Small eigenvalue found = 9.939e-03
Small eigenvalue found = 2.411e-02
Small eigenvalue found = 2.878e-02
The first mode is                       ....   78
The number of degrees of freedom        ....   90

    -----------------------------------------------------------------
                    Redundant Internal Coordinates


    -----------------------------------------------------------------
         Definition                    Initial Value    Approx d2E/dq
    -----------------------------------------------------------------
      1. B(C   6,N   4)                  1.4507         0.447764   
      2. B(C   7,N   5)                  1.4497         0.449370   
      3. B(C   7,C   6)                  1.5449         0.353620   
      4. B(C   8,C   6)                  1.5312         0.371999   
      5. B(C   8,S   0)                  1.8120         0.357495   
      6. B(C   9,C   7)                  1.5269         0.377785   
      7. B(C   9,S   0)                  1.8069         0.364269   
      8. B(C  10,C   8)                  1.5196         0.388057   
      9. B(C  11,C  10)                  1.5307         0.372579   
     10. B(C  12,N   5)                  1.3990         0.541314   
     11. B(C  12,N   4)                  1.3993         0.540797   
     12. B(C  12,O   1)                  1.2235         1.031638   
     13. B(C  13,C  11)                  1.5314         0.371685   
     14. B(C  14,C  13)                  1.5282         0.376018   
     15. B(C  15,O   2)                  1.3589         0.627413   
     16. B(C  15,C  14)                  1.5119         0.399251   
     17. B(C  15,O   3)                  1.2230         1.033392   
     18. B(H  16,C   6)                  1.0961         0.352159   
     19. B(H  17,C   7)                  1.0952         0.353292   
     20. B(H  18,C   8)                  1.0969         0.351118   
     21. B(H  19,C   9)                  1.0947         0.353911   
     22. B(H  20,C   9)                  1.0940         0.354902   
     23. B(H  21,C  10)                  1.0982         0.349453   
     24. B(H  22,C  10)                  1.0977         0.350054   
     25. B(H  23,N   4)                  1.0150         0.424811   
     26. B(H  24,N   5)                  1.0151         0.424657   
     27. B(H  25,C  11)                  1.0955         0.352894   
     28. B(H  26,C  11)                  1.0978         0.349895   
     29. B(H  27,C  13)                  1.0973         0.350524   
     30. B(H  28,C  13)                  1.0975         0.350322   
     31. B(H  29,C  14)                  1.0953         0.353140   
     32. B(H  30,C  14)                  1.0955         0.352927   
     33. B(H  31,O   2)                  0.9810         0.481358   
     34. A(C   8,S   0,C   9)           92.7378         0.398340   
     35. A(C  15,O   2,H  31)          111.8594         0.365995   
     36. A(C   6,N   4,C  12)          112.3073         0.394703   
     37. A(C   6,N   4,H  23)          124.4652         0.338476   
     38. A(C  12,N   4,H  23)          122.9789         0.349367   
     39. A(C   7,N   5,C  12)          112.2895         0.395017   
     40. A(C   7,N   5,H  24)          124.0881         0.338658   
     41. A(C  12,N   5,H  24)          123.6187         0.349401   
     42. A(C   8,C   6,H  16)          110.6981         0.322910   
     43. A(N   4,C   6,H  16)          106.5582         0.330926   
     44. A(C   7,C   6,C   8)          109.9274         0.359705   
     45. A(N   4,C   6,C   7)          103.9594         0.368981   
     46. A(C   7,C   6,H  16)          110.9996         0.320243   
     47. A(N   4,C   6,C   8)          114.4883         0.372211   
     48. A(C   6,C   7,H  17)          112.2219         0.320411   
     49. A(N   5,C   7,C   9)          111.4419         0.373432   
     50. A(N   5,C   7,C   6)          104.0946         0.369208   
     51. A(N   5,C   7,H  17)          107.2099         0.331298   
     52. A(C   9,C   7,H  17)          110.7265         0.323900   
     53. A(C   6,C   7,C   9)          110.9192         0.360652   
     54. A(C   6,C   8,H  18)          108.8735         0.322754   
     55. A(S   0,C   8,C   6)          103.9213         0.379425   
     56. A(C   6,C   8,C  10)          115.6974         0.365459   
     57. A(S   0,C   8,C  10)          112.0747         0.382216   
     58. A(S   0,C   8,H  18)          106.5527         0.336922   
     59. A(C  10,C   8,H  18)          109.2460         0.325000   
     60. A(S   0,C   9,C   7)          105.5589         0.381682   
     61. A(H  19,C   9,H  20)          108.5557         0.289388   
     62. A(C   7,C   9,H  20)          113.4266         0.324141   
     63. A(S   0,C   9,H  20)          111.1704         0.338583   
     64. A(C   7,C   9,H  19)          110.2611         0.323993   
     65. A(S   0,C   9,H  19)          107.7132         0.338425   
     66. A(C   8,C  10,C  11)          113.5894         0.365556   
     67. A(H  21,C  10,H  22)          105.9943         0.288193   
     68. A(C  11,C  10,H  22)          108.6938         0.322676   
     69. A(C   8,C  10,H  22)          111.0148         0.324838   
     70. A(C  11,C  10,H  21)          108.1190         0.322585   
     71. A(C   8,C  10,H  21)          109.1136         0.324746   
     72. A(C  13,C  11,H  26)          108.3452         0.322524   
     73. A(C  10,C  11,H  26)          108.3474         0.322652   
     74. A(C  13,C  11,H  25)          107.9612         0.322976   
     75. A(H  25,C  11,H  26)          106.1332         0.288615   
     76. A(C  10,C  11,H  25)          109.9772         0.323103   
     77. A(C  10,C  11,C  13)          115.6555         0.362871   
     78. A(O   1,C  12,N   4)          126.4390         0.458268   
     79. A(N   4,C  12,N   5)          107.1061         0.408117   
     80. A(O   1,C  12,N   5)          126.4533         0.458348   
     81. A(H  27,C  13,H  28)          106.3124         0.288366   
     82. A(C  11,C  13,H  28)          108.7689         0.322589   
     83. A(C  14,C  13,H  27)          109.2633         0.323233   
     84. A(C  11,C  13,H  27)          109.2217         0.322619   
     85. A(C  14,C  13,H  28)          109.5978         0.323202   
     86. A(C  11,C  13,C  14)          113.4296         0.363441   
     87. A(H  29,C  14,H  30)          109.0726         0.289037   
     88. A(C  15,C  14,H  30)          107.9842         0.326801   
     89. A(C  13,C  14,H  30)          109.6751         0.323595   
     90. A(C  15,C  14,H  29)          108.3760         0.326833   
     91. A(C  13,C  14,H  29)          109.7979         0.323628   
     92. A(C  13,C  14,C  15)          111.8731         0.367922   
     93. A(O   3,C  15,C  14)          125.5045         0.436751   
     94. A(O   2,C  15,C  14)          111.4075         0.399612   
     95. A(O   2,C  15,O   3)          123.0873         0.471043   
     96. D(H  16,C   6,N   4,C  12)   -112.8543         0.017101   
     97. D(C   7,C   6,N   4,C  12)      4.4779         0.017101   
     98. D(C   8,C   6,N   4,H  23)    -61.1743         0.017101   
     99. D(C   8,C   6,N   4,C  12)    124.4208         0.017101   
    100. D(C   7,C   6,N   4,H  23)    178.8828         0.017101   
    101. D(C   6,C   7,N   5,H  24)   -175.5219         0.017226   
    102. D(C   6,C   7,N   5,C  12)      3.7968         0.017226   
    103. D(N   5,C   7,C   6,H  16)    109.4171         0.010059   
    104. D(N   5,C   7,C   6,N   4)     -4.7858         0.010059   
    105. D(C   9,C   7,C   6,H  16)   -130.6175         0.010059   
    106. D(C   9,C   7,N   5,C  12)   -115.8148         0.017226   
    107. D(N   5,C   7,C   6,C   8)   -127.7723         0.010059   
    108. D(C   9,C   7,C   6,C   8)     -7.8070         0.010059   
    109. D(C   9,C   7,C   6,N   4)    115.1795         0.010059   
    110. D(H  17,C   7,N   5,C  12)    122.8736         0.017226   
    111. D(C   9,C   7,N   5,H  24)     64.8665         0.017226   
    112. D(C  10,C   8,C   6,H  16)    -81.9716         0.011055   
    113. D(C  10,C   8,C   6,C   7)    155.0404         0.011055   
    114. D(S   0,C   8,C   6,H  16)    154.7324         0.011055   
    115. D(S   0,C   8,C   6,C   7)     31.7444         0.011055   
    116. D(C  10,C   8,C   6,N   4)     38.4833         0.011055   
    117. D(H  18,C   8,S   0,C   9)     76.4617         0.003544   
    118. D(S   0,C   8,C   6,N   4)    -84.8126         0.011055   
    119. D(C   6,C   8,S   0,C   9)    -38.4580         0.003544   
    120. D(C  10,C   8,S   0,C   9)   -164.0918         0.003544   
    121. D(S   0,C   9,C   7,C   6)    -20.0341         0.011382   
    122. D(S   0,C   9,C   7,N   5)     95.4473         0.011382   
    123. D(H  20,C   9,S   0,C   8)    157.6783         0.003625   
    124. D(C   7,C   9,S   0,C   8)     34.2841         0.003625   
    125. D(S   0,C   9,C   7,H  17)   -145.3119         0.011382   
    126. D(H  19,C   9,S   0,C   8)    -83.5097         0.003625   
    127. D(H  19,C   9,C   7,H  17)    -29.2440         0.011382   
    128. D(H  19,C   9,C   7,C   6)     96.0338         0.011382   
    129. D(H  19,C   9,C   7,N   5)   -148.4848         0.011382   
    130. D(H  21,C  10,C   8,H  18)     57.0287         0.011977   
    131. D(H  21,C  10,C   8,C   6)   -179.7247         0.011977   
    132. D(H  21,C  10,C   8,S   0)    -60.8255         0.011977   
    133. D(C  11,C  10,C   8,H  18)    -63.6667         0.011977   
    134. D(C  11,C  10,C   8,C   6)     59.5799         0.011977   
    135. D(C  11,C  10,C   8,S   0)    178.4790         0.011977   
    136. D(H  25,C  11,C  10,H  22)     64.4909         0.011088   
    137. D(H  25,C  11,C  10,H  21)    179.1225         0.011088   
    138. D(H  25,C  11,C  10,C   8)    -59.6239         0.011088   
    139. D(C  13,C  11,C  10,H  22)    -58.0978         0.011088   
    140. D(C  13,C  11,C  10,H  21)     56.5338         0.011088   
    141. D(C  13,C  11,C  10,C   8)    177.7874         0.011088   
    142. D(N   4,C  12,N   5,H  24)    178.1605         0.023316   
    143. D(N   4,C  12,N   5,C   7)     -1.1620         0.023316   
    144. D(O   1,C  12,N   5,H  24)     -1.4060         0.023316   
    145. D(O   1,C  12,N   5,C   7)    179.2715         0.023316   
    146. D(N   5,C  12,N   4,H  23)   -176.7834         0.023270   
    147. D(N   5,C  12,N   4,C   6)     -2.2821         0.023270   
    148. D(O   1,C  12,N   4,H  23)      2.7832         0.023270   
    149. D(O   1,C  12,N   4,C   6)    177.2845         0.023270   
    150. D(H  27,C  13,C  11,H  26)     66.4033         0.011038   
    151. D(H  27,C  13,C  11,H  25)   -179.0622         0.011038   
    152. D(H  27,C  13,C  11,C  10)    -55.4113         0.011038   
    153. D(C  14,C  13,C  11,H  26)    -55.7291         0.011038   
    154. D(C  14,C  13,C  11,H  25)     58.8054         0.011038   
    155. D(C  14,C  13,C  11,C  10)   -177.5436         0.011038   
    156. D(C  15,C  14,C  13,H  28)    -54.3703         0.011282   
    157. D(C  15,C  14,C  13,H  27)     61.7500         0.011282   
    158. D(C  15,C  14,C  13,C  11)   -176.1408         0.011282   
    159. D(H  29,C  14,C  13,H  28)   -174.7390         0.011282   
    160. D(H  29,C  14,C  13,H  27)    -58.6187         0.011282   
    161. D(H  29,C  14,C  13,C  11)     63.4905         0.011282   
    162. D(O   3,C  15,C  14,H  29)    119.8995         0.011832   
    163. D(O   3,C  15,C  14,C  13)     -1.2952         0.011832   
    164. D(O   2,C  15,C  14,H  30)     58.2335         0.011832   
    165. D(O   2,C  15,C  14,H  29)    -59.7908         0.011832   
    166. D(O   2,C  15,C  14,C  13)    179.0145         0.011832   
    167. D(C  14,C  15,O   2,H  31)    179.8119         0.028932   
    168. D(O   3,C  15,O   2,H  31)      0.1128         0.028932   
    -----------------------------------------------------------------

Number of atoms                         .... 32
Number of degrees of freedom            .... 168


         *************************************************************
         *                GEOMETRY OPTIMIZATION CYCLE   1            *
         *************************************************************
---------------------------------
CARTESIAN COORDINATES (ANGSTROEM)
---------------------------------
  S     -2.461300    1.956200    1.026400
  O     -3.028200   -2.774500    0.786200
  O      5.960100   -0.728600   -0.862500
  O      5.234500   -0.156200    1.211800
  N     -1.638900   -1.077600   -0.037900
  N     -3.865300   -0.876000   -0.301600
  C     -1.796300    0.156100   -0.784700
  C     -3.327200    0.332500   -0.894600
  C     -1.175900    1.386100   -0.116400
  C     -3.788100    1.577500   -0.140200
  C      0.151500    1.155000    0.586400
  C      1.253600    0.636900   -0.341000
  C     -2.864100   -1.702600    0.219600
  C      2.626500    0.437600    0.307500
  C      3.701800   -0.023400   -0.675700
  C      5.017300   -0.298900    0.016700
  H     -1.349000   -0.016200   -1.770400
  H     -3.667100    0.361900   -1.935300
  H     -1.054200    2.175100   -0.868600
  H     -3.879500    2.424900   -0.827200
  H     -4.742800    1.444100    0.377000
  H      0.493600    2.100200    1.028600
  H      0.037100    0.453600    1.423000
  H     -0.744800   -1.496100    0.198100
  H     -4.853800   -1.105400   -0.275200
  H      0.949500   -0.316000   -0.787800
  H      1.364300    1.343000   -1.174300
  H      2.944100    1.377200    0.777000
  H      2.530800   -0.295400    1.118700
  H      3.866200    0.749000   -1.434700
  H      3.379200   -0.946900   -1.168800
  H      6.817600   -0.906600   -0.420500

----------------------------
CARTESIAN COORDINATES (A.U.)
----------------------------
  NO LB      ZA    FRAG     MASS         X           Y           Z
   0 S    16.0000    0    32.060   -4.651183    3.696682    1.939615
   1 O     8.0000    0    15.999   -5.722469   -5.243045    1.485703
   2 O     8.0000    0    15.999   11.262957   -1.376854   -1.629889
   3 O     8.0000    0    15.999    9.891771   -0.295175    2.289970
   4 N     7.0000    0    14.007   -3.097072   -2.036369   -0.071621
   5 N     7.0000    0    14.007   -7.304358   -1.655400   -0.569941
   6 C     6.0000    0    12.011   -3.394515    0.294986   -1.482868
   7 C     6.0000    0    12.011   -6.287497    0.628334   -1.690549
   8 C     6.0000    0    12.011   -2.222129    2.619349   -0.219964
   9 C     6.0000    0    12.011   -7.158472    2.981043   -0.264940
  10 C     6.0000    0    12.011    0.286294    2.182634    1.108135
  11 C     6.0000    0    12.011    2.368961    1.203567   -0.644397
  12 C     6.0000    0    12.011   -5.412365   -3.217448    0.414984
  13 C     6.0000    0    12.011    4.963366    0.826944    0.581091
  14 C     6.0000    0    12.011    6.995388   -0.044220   -1.276888
  15 C     6.0000    0    12.011    9.481323   -0.564839    0.031558
  16 H     1.0000    0     1.008   -2.549241   -0.030614   -3.345571
  17 H     1.0000    0     1.008   -6.929815    0.683892   -3.657187
  18 H     1.0000    0     1.008   -1.992149    4.110343   -1.641416
  19 H     1.0000    0     1.008   -7.331193    4.582397   -1.563181
  20 H     1.0000    0     1.008   -8.962593    2.728954    0.712427
  21 H     1.0000    0     1.008    0.932769    3.968803    1.943772
  22 H     1.0000    0     1.008    0.070109    0.857180    2.689080
  23 H     1.0000    0     1.008   -1.407468   -2.827219    0.374355
  24 H     1.0000    0     1.008   -9.172353   -2.088903   -0.520053
  25 H     1.0000    0     1.008    1.794295   -0.597153   -1.488726
  26 H     1.0000    0     1.008    2.578153    2.537902   -2.219105
  27 H     1.0000    0     1.008    5.563543    2.602531    1.468317
  28 H     1.0000    0     1.008    4.782519   -0.558225    2.114037
  29 H     1.0000    0     1.008    7.306059    1.415405   -2.711190
  30 H     1.0000    0     1.008    6.385763   -1.789382   -2.208712
  31 H     1.0000    0     1.008   12.883397   -1.713226   -0.794630

--------------------------------
INTERNAL COORDINATES (ANGSTROEM)
--------------------------------
 S      0   0   0     0.000000000000     0.00000000     0.00000000
 O      1   0   0     4.770596832682     0.00000000     0.00000000
 O      1   2   0     9.038587954432    78.79278641     0.00000000
 O      3   1   2     2.270871552951    55.70387117   259.44388484
 N      2   1   3     2.342811326164    39.55618515   333.84580172
 N      5   2   1     2.251008043078    61.28539784   306.95880408
 C      5   2   1     1.450689729060   137.11336646   303.55968255
 C      6   5   2     1.449714751253    75.84524104   179.09882780
 C      7   5   2     1.531150237567   114.48829460   126.09674363
 C      8   6   5     1.526948974262   111.44190013   243.47325903
 C      9   7   5     1.519646606945   115.69743376    38.48332100
 C     11   9   7     1.530726226338   113.58942771    59.57985787
 C      2   1   3     1.223492533692    30.52667676   284.99667978
 C     12  11   9     1.531380798495   115.65553653   177.78742072
 C     14  12  11     1.528225549453   113.42956445   182.45637712
 C      4   3   1     1.223030310336    30.08957709   359.11404266
 H      7   5   2     1.096069828980   106.55820634   248.82166367
 H      8   6   5     1.095195352437   107.20993432   122.16166253
 H      9   7   5     1.096875895441   108.87346303   161.92553740
 H     10   8   6     1.094719014177   110.26110996   211.51521329
 H     10   8   6     1.093957718561   113.42657856   333.49587345
 H     11   9   7     1.098169517880   109.11362803   180.27533006
 H     11   9   7     1.097701635236   111.01476247   296.73231347
 H      5   2   1     1.015013822566    98.16015935   129.61074977
 H      6   5   2     1.015112589815   160.02677941   355.71925372
 H     12  11   9     1.095502377907   109.97719502   300.37610778
 H     12  11   9     1.097825391399   108.34739288    55.97404119
 H     14  12  11     1.097336853478   109.22168722   304.58873684
 H     14  12  11     1.097493931646   108.76894951    60.22434922
 H     15  14  12     1.095312795506   109.79794079    63.49046501
 H     15  14  12     1.095477348009   109.67507096   303.65291445
 H      3   1   2     0.980996559627   140.72904824   261.00383085

---------------------------
INTERNAL COORDINATES (A.U.)
---------------------------
 S      0   0   0     0.000000000000     0.00000000     0.00000000
 O      1   0   0     9.015121509122     0.00000000     0.00000000
 O      1   2   0    17.080455871236    78.79278641     0.00000000
 O      3   1   2     4.291325320389    55.70387117   259.44388484
 N      2   1   3     4.427271789898    39.55618515   333.84580172
 N      5   2   1     4.253788726671    61.28539784   306.95880408
 C      5   2   1     2.741406293216   137.11336646   303.55968255
 C      6   5   2     2.739563852174    75.84524104   179.09882780
 C      7   5   2     2.893454618889   114.48829460   126.09674363
 C      8   6   5     2.885515381827   111.44190013   243.47325903
 C      9   7   5     2.871715907469   115.69743376    38.48332100
 C     11   9   7     2.892653353790   113.58942771    59.57985787
 C      2   1   3     2.312065815575    30.52667676   284.99667978
 C     12  11   9     2.893890315902   115.65553653   177.78742072
 C     14  12  11     2.887927759327   113.42956445   182.45637712
 C      4   3   1     2.311192340019    30.08957709   359.11404266
 H      7   5   2     2.071271800426   106.55820634   248.82166367
 H      8   6   5     2.069619279250   107.20993432   122.16166253
 H      9   7   5     2.072795045284   108.87346303   161.92553740
 H     10   8   6     2.068719130390   110.26110996   211.51521329
 H     10   8   6     2.067280490170   113.42657856   333.49587345
 H     11   9   7     2.075239637413   109.11362803   180.27533006
 H     11   9   7     2.074355467354   111.01476247   296.73231347
 H      5   2   1     1.918098146794    98.16015935   129.61074977
 H      6   5   2     1.918284789845   160.02677941   355.71925372
 H     12  11   9     2.070199473304   109.97719502   300.37610778
 H     12  11   9     2.074589332609   108.34739288    55.97404119
 H     14  12  11     2.073666129731   109.22168722   304.58873684
 H     14  12  11     2.073962964452   108.76894951    60.22434922
 H     15  14  12     2.069841214487   109.79794079    63.49046501
 H     15  14  12     2.070152173651   109.67507096   303.65291445
 H      3   1   2     1.853814836014   140.72904824   261.00383085

---------------------
BASIS SET INFORMATION
---------------------
There are 5 groups of distinct atoms

 Group   1 Type S   : 14s9p1d contracted to 5s4p1d pattern {73211/6111/1}
 Group   2 Type O   : 11s6p2d contracted to 5s3p2d pattern {62111/411/11}
 Group   3 Type N   : 11s6p1d contracted to 5s3p1d pattern {62111/411/1}
 Group   4 Type C   : 11s6p1d contracted to 5s3p1d pattern {62111/411/1}
 Group   5 Type H   : 5s contracted to 3s pattern {311}

Atom   0S    basis set group =>   1
Atom   1O    basis set group =>   2
Atom   2O    basis set group =>   2
Atom   3O    basis set group =>   2
Atom   4N    basis set group =>   3
Atom   5N    basis set group =>   3
Atom   6C    basis set group =>   4
Atom   7C    basis set group =>   4
Atom   8C    basis set group =>   4
Atom   9C    basis set group =>   4
Atom  10C    basis set group =>   4
Atom  11C    basis set group =>   4
Atom  12C    basis set group =>   4
Atom  13C    basis set group =>   4
Atom  14C    basis set group =>   4
Atom  15C    basis set group =>   4
Atom  16H    basis set group =>   5
Atom  17H    basis set group =>   5
Atom  18H    basis set group =>   5
Atom  19H    basis set group =>   5
Atom  20H    basis set group =>   5
Atom  21H    basis set group =>   5
Atom  22H    basis set group =>   5
Atom  23H    basis set group =>   5
Atom  24H    basis set group =>   5
Atom  25H    basis set group =>   5
Atom  26H    basis set group =>   5
Atom  27H    basis set group =>   5
Atom  28H    basis set group =>   5
Atom  29H    basis set group =>   5
Atom  30H    basis set group =>   5
Atom  31H    basis set group =>   5
---------------------------------
AUXILIARY/J BASIS SET INFORMATION
---------------------------------
There are 5 groups of distinct atoms

 Group   1 Type S   : 14s5p5d2f1g contracted to 8s4p3d1f1g pattern {71111111/2111/311/2/1}
 Group   2 Type O   : 8s3p3d contracted to 6s3p3d pattern {311111/111/111}
 Group   3 Type N   : 8s3p3d contracted to 6s3p3d pattern {311111/111/111}
 Group   4 Type C   : 8s3p3d contracted to 6s3p3d pattern {311111/111/111}
 Group   5 Type H   : 5s2p contracted to 3s1p pattern {311/2}

Atom   0S    basis set group =>   1
Atom   1O    basis set group =>   2
Atom   2O    basis set group =>   2
Atom   3O    basis set group =>   2
Atom   4N    basis set group =>   3
Atom   5N    basis set group =>   3
Atom   6C    basis set group =>   4
Atom   7C    basis set group =>   4
Atom   8C    basis set group =>   4
Atom   9C    basis set group =>   4
Atom  10C    basis set group =>   4
Atom  11C    basis set group =>   4
Atom  12C    basis set group =>   4
Atom  13C    basis set group =>   4
Atom  14C    basis set group =>   4
Atom  15C    basis set group =>   4
Atom  16H    basis set group =>   5
Atom  17H    basis set group =>   5
Atom  18H    basis set group =>   5
Atom  19H    basis set group =>   5
Atom  20H    basis set group =>   5
Atom  21H    basis set group =>   5
Atom  22H    basis set group =>   5
Atom  23H    basis set group =>   5
Atom  24H    basis set group =>   5
Atom  25H    basis set group =>   5
Atom  26H    basis set group =>   5
Atom  27H    basis set group =>   5
Atom  28H    basis set group =>   5
Atom  29H    basis set group =>   5
Atom  30H    basis set group =>   5
Atom  31H    basis set group =>   5


           ************************************************************
           *        Program running with 16 parallel MPI-processes    *
           *              working on a common directory               *
           ************************************************************
------------------------------------------------------------------------------
                             ORCA STARTUP CALCULATIONS
                           -- RI-GTO INTEGRALS CHOSEN --
------------------------------------------------------------------------------
------------------------------------------------------------------------------
                   ___                                                        
                  /   \      - P O W E R E D   B Y -                         
                 /     \                                                     
                 |  |  |   _    _      __       _____    __    __             
                 |  |  |  | |  | |    /  \     |  _  \  |  |  /  |          
                  \  \/   | |  | |   /    \    | | | |  |  | /  /          
                 / \  \   | |__| |  /  /\  \   | |_| |  |  |/  /          
                |  |  |   |  __  | /  /__\  \  |    /   |      \           
                |  |  |   | |  | | |   __   |  |    \   |  |\   \          
                \     /   | |  | | |  |  |  |  | |\  \  |  | \   \       
                 \___/    |_|  |_| |__|  |__|  |_| \__\ |__|  \__/        
                                                                              
                      - O R C A' S   B I G   F R I E N D -                    
                                      &                                       
                       - I N T E G R A L  F E E D E R -                       
                                                                              
 v1 FN, 2020, v2 2021, v3 2022-2024                                           
------------------------------------------------------------------------------


----------------------
SHARK INTEGRAL PACKAGE
----------------------

Number of atoms                             ...     32
Number of basis functions                   ...    370
Number of shells                            ...    196
Maximum angular momentum                    ...      2
Integral batch strategy                     ... SHARK/LIBINT Hybrid
RI-J (if used) integral strategy            ... SPLIT-RIJ (Revised 2003 algorithm where possible)
Printlevel                                  ...      1
Contraction scheme used                     ... SEGMENTED contraction
Prescreening option                         ... SCHWARTZ
   Thresh                                   ... 2.500e-11
   Tcut                                     ... 2.500e-12
   Tpresel                                  ... 2.500e-12 
Coulomb Range Separation                    ... NOT USED
Exchange Range Separation                   ... NOT USED
Multipole approximations                    ... NOT USED
Finite Nucleus Model                        ... NOT USED
CABS basis                                  ... NOT available
Auxiliary Coulomb fitting basis             ... AVAILABLE
   # of basis functions in Aux-J            ...    597
   # of shells in Aux-J                     ...    261
   Maximum angular momentum in Aux-J        ...      4
Auxiliary J/K fitting basis                 ... NOT available
Auxiliary Correlation fitting basis         ... NOT available
Auxiliary 'external' fitting basis          ... NOT available

Checking pre-screening integrals            ... done (  0.0 sec) Dimension = 196
Check shell pair data                       ... done (  0.0 sec)
Shell pair information
Shell pair cut-off parameter TPreSel        ...   2.5e-12
Total number of shell pairs                 ...     19306
Shell pairs after pre-screening             ...     14184
Total number of primitive shell pairs       ...     71671
Primitive shell pairs kept                  ...     34247
          la=0 lb=0:   5846 shell pairs
          la=1 lb=0:   4844 shell pairs
          la=1 lb=1:   1010 shell pairs
          la=2 lb=0:   1654 shell pairs
          la=2 lb=1:    703 shell pairs
          la=2 lb=2:    127 shell pairs

Calculating one electron integrals          ... done (  0.5 sec)
Calculating RI/J V-Matrix + Cholesky decomp.... done (  0.5 sec)
Calculating Nuclear repulsion               ... done (  0.0 sec) ENN=   1225.037681120016 Eh

Diagonalization of the overlap matrix:
Smallest eigenvalue                        ... 3.652e-05
Time for diagonalization                   ...    0.297 sec
Threshold for overlap eigenvalues          ... 1.000e-07
Number of eigenvalues below threshold      ... 0
Time for construction of square roots      ...    0.006 sec
Total time needed                          ...    0.305 sec

-------------------
DFT GRID GENERATION
-------------------

General Integration Accuracy     IntAcc      ... 4.959
Radial Grid Type                 RadialGrid  ... OptM3 with GC (2021)
Angular Grid (max. ang.)         AngularGrid ... 6 (Lebedev-590)
Angular grid pruning method      GridPruning ... 4 (adaptive)
Weight generation scheme         WeightScheme... mBecke (2022)
Basis function cutoff            BFCut       ... 1.0000e-11
Integration weight cutoff        WCut        ... 1.0000e-14
Partially contracted basis set               ... off
Rotationally invariant grid construction     ... off
Angular grids for H and He will be reduced by one unit
Diffuse basis detected: some atoms will have their outermost
                        angular grid increased by 1.

Total number of grid points                  ...   367058
Total number of batches                      ...     5752
Average number of points per batch           ...       63
Average number of grid points per atom       ...    11471
Initializing property integral containers    ... done (  0.1 sec)

SHARK setup successfully completed in   6.3 seconds

Maximum memory used throughout the entire STARTUP-calculation: 85.2 MB


           ************************************************************
           *        Program running with 16 parallel MPI-processes    *
           *              working on a common directory               *
           ************************************************************
-------------------------------------------------------------------------------
                                 ORCA GUESS
                   Start orbitals & Density for SCF / CASSCF
-------------------------------------------------------------------------------

------------
SCF SETTINGS
------------
Hamiltonian:
 Density Functional     Method          .... DFT(GTOs)
 Exchange Functional    Exchange        .... B973C
 Correlation Functional Correlation     .... B973C
 Gradients option       PostSCFGGA      .... off
 RI-approximation to the Coulomb term is turned on
   Number of AuxJ basis functions       .... 597


General Settings:
 Integral files         IntName         .... m1_00_Vitamin_B7-B97-3C-TZ
 Hartree-Fock type      HFTyp           .... RHF
 Total Charge           Charge          ....    0
 Multiplicity           Mult            ....    1
 Number of Electrons    NEL             ....  130
 Basis Dimension        Dim             ....  370
 Nuclear Repulsion      ENuc            ....   1225.0376811200 Eh

Convergence Acceleration:
 AO-DIIS                CNVDIIS         .... on
   Start iteration      DIISMaxIt       ....    12
   Startup error        DIISStart       ....  0.200000
   # of expansion vecs  DIISMaxEq       ....     5
   Bias factor          DIISBfac        ....   1.050
   Max. coefficient     DIISMaxC        ....  10.000
 MO-DIIS                CNVKDIIS        .... off
 Trust-Rad. Augm. Hess. CNVTRAH         .... off
 SOSCF                  CNVSOSCF        .... on
   Start iteration      SOSCFMaxIt      ....   150
   Startup grad/error   SOSCFStart      ....  0.003300
   Hessian update       SOSCFHessUp     .... L-BFGS
 Level Shifting         CNVShift        .... on
   Level shift para.    LevelShift      ....    0.2500
   Turn off err/grad.   ShiftErr        ....    0.0010
 Zerner damping         CNVZerner       .... off
 Static damping         CNVDamp         .... on
   Fraction old density DampFac         ....    0.7000
   Max. Damping (<1)    DampMax         ....    0.9800
   Min. Damping (>=0)   DampMin         ....    0.0000
   Turn off err/grad.   DampErr         ....    0.1000

SCF Procedure:
 Maximum # iterations   MaxIter         ....   800
 SCF integral mode      SCFMode         .... Direct
   Integral package                     .... SHARK and LIBINT hybrid scheme
 Reset frequency        DirectResetFreq ....    20
 Integral Threshold     Thresh          ....  2.500e-11 Eh
 Primitive CutOff       TCut            ....  2.500e-12 Eh

Convergence Tolerance:
 Convergence Check Mode ConvCheckMode   .... Total+1el-Energy
 Convergence forced     ConvForced      .... 0
 Energy Change          TolE            ....  1.000e-08 Eh
 1-El. energy change                    ....  1.000e-05 Eh
 Orbital Gradient       TolG            ....  1.000e-05
 Orbital Rotation angle TolX            ....  1.000e-05
 DIIS Error             TolErr          ....  5.000e-07

--------------------------------
INITIAL GUESS: MINIMAL BASIS EHT
--------------------------------
The minimal basis has 100 functions
EHT matrix was diagonalized
Basis set overlap was calculated now projecting the orbitals
Using GuessMode=FMatrix for the initial guess
C*T matrix was formed
Effective Fockian was calculated
Effective Fockian was diagonalized
Initial density was built
                      ------------------
                      INITIAL GUESS DONE
                      ------------------
             **** ENERGY FILE WAS UPDATED (m1_00_Vitamin_B7-B97-3C-TZ.en.tmp) ****
Finished Guess after   0.8 sec
Maximum memory used throughout the entire GUESS-calculation: 26.9 MB


           ************************************************************
           *        Program running with 16 parallel MPI-processes    *
           *              working on a common directory               *
           ************************************************************

-------------------------------------------------------------------------------------------
                                      ORCA LEAN-SCF
                              memory conserving SCF solver
-------------------------------------------------------------------------------------------

----------------------------------------D-I-I-S--------------------------------------------
Iteration    Energy (Eh)           Delta-E    RMSDP     MaxDP     DIISErr   Damp  Time(sec)
-------------------------------------------------------------------------------------------
               ***  Starting incremental Fock matrix formation  ***
    1    -1120.8832405423067939     0.00e+00  5.28e-03  1.57e-01  8.30e-01  0.700   3.0
    2    -1121.8675019611496282    -9.84e-01  4.17e-03  1.46e-01  5.56e-01  0.700   0.5
    3    -1122.3492254005800532    -4.82e-01  3.00e-03  9.81e-02  3.70e-01  0.700   0.5
    4    -1122.7136665064581393    -3.64e-01  2.11e-03  7.20e-02  2.49e-01  0.700   0.5
                               ***Turning on AO-DIIS***
    5    -1122.9693290779241579    -2.56e-01  1.42e-03  6.71e-02  1.68e-01  0.700   0.5
    6    -1123.1456114601010086    -1.76e-01  9.76e-04  4.33e-02  1.20e-01  0.700   0.5
    7    -1123.2700022722951871    -1.24e-01  7.05e-04  2.64e-02  8.50e-02  0.700   0.5
    8    -1123.3571479268671283    -8.71e-02  1.68e-03  6.26e-02  5.92e-02  0.000   0.5
    9    -1123.5606957269797022    -2.04e-01  2.00e-04  8.34e-03  1.04e-02  0.000   0.5
   10    -1123.5609713006710990    -2.76e-04  6.07e-05  3.38e-03  6.31e-03  0.000   0.5
                              *** Initializing SOSCF ***
---------------------------------------S-O-S-C-F--------------------------------------
Iteration    Energy (Eh)           Delta-E    RMSDP     MaxDP     MaxGrad    Time(sec)
--------------------------------------------------------------------------------------
   11    -1123.5610640603881620    -9.28e-05  2.91e-05  1.56e-03  9.69e-04     0.5
               *** Restarting incremental Fock matrix formation ***
   12    -1123.5610722285396150    -8.17e-06  2.41e-05  1.50e-03  1.67e-04     0.5
   13    -1123.5610705478284217     1.68e-06  1.02e-05  4.31e-04  5.22e-04     0.4
   14    -1123.5610725569135866    -2.01e-06  1.35e-05  8.90e-04  6.14e-05     0.4
   15    -1123.5610723831500763     1.74e-07  6.22e-06  3.99e-04  7.16e-05     0.4
   16    -1123.5610726192776383    -2.36e-07  4.32e-06  2.83e-04  6.43e-06     0.4
   17    -1123.5610726179197627     1.36e-09  1.58e-06  7.49e-05  1.69e-05     0.4
                 **** Energy Check signals convergence ****

               *****************************************************
               *                     SUCCESS                       *
               *           SCF CONVERGED AFTER  17 CYCLES          *
               *****************************************************

             **** ENERGY FILE WAS UPDATED (m1_00_Vitamin_B7-B97-3C-TZ.en.tmp) ****

----------------
TOTAL SCF ENERGY
----------------

Total Energy       :      -1123.56107261791976 Eh          -30573.65112 eV

Components:
Nuclear Repulsion  :       1225.03768112001580 Eh           33334.97002 eV
Electronic Energy  :      -2348.59875373793511 Eh          -63908.62114 eV
One Electron Energy:      -3972.21398652715106 Eh         -108089.43773 eV
Two Electron Energy:       1623.61523278921572 Eh           44180.81659 eV

Virial components:
Potential Energy   :      -2243.37957812930154 Eh          -61045.46181 eV
Kinetic Energy     :       1119.81850551138177 Eh           30471.81069 eV
Virial Ratio       :          2.00334211935963

DFT components:
N(Alpha)           :       64.999992416179 electrons
N(Beta)            :       64.999992416179 electrons
N(Total)           :      129.999984832357 electrons
E(XC)              :     -124.986857464583 Eh       

---------------
SCF CONVERGENCE
---------------

  Last Energy change         ...   -1.3579e-09  Tolerance :   1.0000e-08
  Last MAX-Density change    ...    7.4851e-05  Tolerance :   1.0000e-07
  Last RMS-Density change    ...    1.5833e-06  Tolerance :   5.0000e-09
  Last DIIS Error            ...    9.6890e-04  Tolerance :   5.0000e-07
  Last Orbital Gradient      ...    1.6923e-05  Tolerance :   1.0000e-05
  Last Orbital Rotation      ...    2.1614e-05  Tolerance :   1.0000e-05


----------------
ORBITAL ENERGIES
----------------

  NO   OCC          E(Eh)            E(eV) 
   0   2.0000     -88.019182     -2395.1237 
   1   2.0000     -18.802316      -511.6370 
   2   2.0000     -18.740761      -509.9620 
   3   2.0000     -18.694212      -508.6954 
   4   2.0000     -14.008812      -381.1992 
   5   2.0000     -14.008731      -381.1970 
   6   2.0000     -10.030079      -272.9323 
   7   2.0000     -10.003002      -272.1955 
   8   2.0000      -9.957031      -270.9446 
   9   2.0000      -9.955550      -270.9043 
  10   2.0000      -9.939563      -270.4693 
  11   2.0000      -9.932313      -270.2720 
  12   2.0000      -9.921527      -269.9785 
  13   2.0000      -9.909443      -269.6496 
  14   2.0000      -9.908964      -269.6366 
  15   2.0000      -9.904789      -269.5230 
  16   2.0000      -7.710921      -209.8248 
  17   2.0000      -5.742765      -156.2686 
  18   2.0000      -5.737987      -156.1386 
  19   2.0000      -5.728951      -155.8927 
  20   2.0000      -1.024752       -27.8849 
  21   2.0000      -0.955217       -25.9928 
  22   2.0000      -0.940177       -25.5835 
  23   2.0000      -0.886974       -24.1358 
  24   2.0000      -0.818975       -22.2855 
  25   2.0000      -0.782627       -21.2964 
  26   2.0000      -0.753808       -20.5121 
  27   2.0000      -0.716845       -19.5064 
  28   2.0000      -0.671010       -18.2591 
  29   2.0000      -0.665546       -18.1104 
  30   2.0000      -0.619801       -16.8656 
  31   2.0000      -0.581623       -15.8268 
  32   2.0000      -0.571424       -15.5492 
  33   2.0000      -0.547396       -14.8954 
  34   2.0000      -0.534321       -14.5396 
  35   2.0000      -0.528814       -14.3898 
  36   2.0000      -0.477018       -12.9803 
  37   2.0000      -0.464089       -12.6285 
  38   2.0000      -0.455036       -12.3822 
  39   2.0000      -0.453203       -12.3323 
  40   2.0000      -0.446067       -12.1381 
  41   2.0000      -0.432142       -11.7592 
  42   2.0000      -0.426147       -11.5960 
  43   2.0000      -0.424242       -11.5442 
  44   2.0000      -0.399578       -10.8731 
  45   2.0000      -0.386194       -10.5089 
  46   2.0000      -0.375732       -10.2242 
  47   2.0000      -0.371486       -10.1087 
  48   2.0000      -0.362236        -9.8569 
  49   2.0000      -0.358825        -9.7641 
  50   2.0000      -0.354245        -9.6395 
  51   2.0000      -0.351290        -9.5591 
  52   2.0000      -0.348164        -9.4740 
  53   2.0000      -0.334923        -9.1137 
  54   2.0000      -0.322410        -8.7732 
  55   2.0000      -0.310714        -8.4550 
  56   2.0000      -0.308269        -8.3884 
  57   2.0000      -0.304142        -8.2761 
  58   2.0000      -0.288346        -7.8463 
  59   2.0000      -0.282605        -7.6901 
  60   2.0000      -0.240977        -6.5573 
  61   2.0000      -0.217349        -5.9144 
  62   2.0000      -0.211936        -5.7671 
  63   2.0000      -0.207249        -5.6395 
  64   2.0000      -0.192961        -5.2507 
  65   0.0000      -0.042221        -1.1489 
  66   0.0000      -0.007298        -0.1986 
  67   0.0000      -0.005565        -0.1514 
  68   0.0000       0.006890         0.1875 
  69   0.0000       0.011473         0.3122 
  70   0.0000       0.021452         0.5838 
  71   0.0000       0.034190         0.9304 
  72   0.0000       0.036745         0.9999 
  73   0.0000       0.044352         1.2069 
  74   0.0000       0.049270         1.3407 
  75   0.0000       0.053783         1.4635 
*Only the first 10 virtual orbitals were printed.

                    ********************************
                    * MULLIKEN POPULATION ANALYSIS *
                    ********************************

-----------------------
MULLIKEN ATOMIC CHARGES
-----------------------
   0 S :    0.020719
   1 O :   -0.435897
   2 O :   -0.505800
   3 O :   -0.380655
   4 N :   -0.398271
   5 N :   -0.426204
   6 C :   -0.238146
   7 C :   -0.052360
   8 C :   -0.022869
   9 C :   -0.369905
  10 C :   -0.375786
  11 C :   -0.388262
  12 C :    0.355844
  13 C :   -0.355916
  14 C :   -0.279643
  15 C :    0.397243
  16 H :    0.190162
  17 H :    0.179143
  18 H :    0.184528
  19 H :    0.177461
  20 H :    0.198682
  21 H :    0.181304
  22 H :    0.188956
  23 H :    0.355668
  24 H :    0.351553
  25 H :    0.158859
  26 H :    0.150836
  27 H :    0.168846
  28 H :    0.167777
  29 H :    0.186164
  30 H :    0.183373
  31 H :    0.432598
Sum of atomic charges:    0.0000000

--------------------------------
MULLIKEN REDUCED ORBITAL CHARGES
--------------------------------
  0 S s       :     5.892063  s :     5.892063
      pz      :     3.318185  p :    10.004588
      px      :     2.898478
      py      :     3.787926
      dz2     :     0.010782  d :     0.082630
      dxz     :     0.037090
      dyz     :     0.010812
      dx2y2   :     0.011388
      dxy     :     0.012558

  1 O s       :     3.843496  s :     3.843496
      pz      :     1.466496  p :     4.567316
      px      :     1.750120
      py      :     1.350700
      dz2     :     0.002168  d :     0.025085
      dxz     :     0.002624
      dyz     :     0.008969
      dx2y2   :     0.007997
      dxy     :     0.003327

  2 O s       :     3.779553  s :     3.779553
      pz      :     1.640041  p :     4.691389
      px      :     1.310916
      py      :     1.740432
      dz2     :     0.008897  d :     0.034858
      dxz     :     0.014193
      dyz     :     0.007434
      dx2y2   :     0.002455
      dxy     :     0.001879

  3 O s       :     3.848700  s :     3.848700
      pz      :     1.314379  p :     4.505065
      px      :     1.736143
      py      :     1.454544
      dz2     :     0.014339  d :     0.026889
      dxz     :     0.003649
      dyz     :     0.006046
      dx2y2   :     0.000997
      dxy     :     0.001859

  4 N s       :     3.337962  s :     3.337962
      pz      :     1.571763  p :     4.023262
      px      :     1.182376
      py      :     1.269122
      dz2     :     0.005145  d :     0.037047
      dxz     :     0.005068
      dyz     :     0.005308
      dx2y2   :     0.009751
      dxy     :     0.011775

  5 N s       :     3.351576  s :     3.351576
      pz      :     1.592382  p :     4.037469
      px      :     1.183179
      py      :     1.261908
      dz2     :     0.005525  d :     0.037159
      dxz     :     0.004277
      dyz     :     0.005312
      dx2y2   :     0.011498
      dxy     :     0.010547

  6 C s       :     3.218098  s :     3.218098
      pz      :     1.093653  p :     2.956930
      px      :     0.997788
      py      :     0.865489
      dz2     :     0.015093  d :     0.063119
      dxz     :     0.008653
      dyz     :     0.014485
      dx2y2   :     0.016487
      dxy     :     0.008400

  7 C s       :     3.132241  s :     3.132241
      pz      :     1.054524  p :     2.857244
      px      :     0.933933
      py      :     0.868787
      dz2     :     0.015952  d :     0.062875
      dxz     :     0.007625
      dyz     :     0.013544
      dx2y2   :     0.015496
      dxy     :     0.010257

  8 C s       :     3.036287  s :     3.036287
      pz      :     0.950790  p :     2.936080
      px      :     0.979070
      py      :     1.006220
      dz2     :     0.005439  d :     0.050502
      dxz     :     0.010907
      dyz     :     0.014847
      dx2y2   :     0.010103
      dxy     :     0.009205

  9 C s       :     3.196832  s :     3.196832
      pz      :     1.041935  p :     3.130165
      px      :     1.042592
      py      :     1.045638
      dz2     :     0.004040  d :     0.042907
      dxz     :     0.009618
      dyz     :     0.013414
      dx2y2   :     0.010450
      dxy     :     0.005384

 10 C s       :     3.240736  s :     3.240736
      pz      :     0.998919  p :     3.090675
      px      :     0.965001
      py      :     1.126755
      dz2     :     0.005076  d :     0.044374
      dxz     :     0.010195
      dyz     :     0.012477
      dx2y2   :     0.010234
      dxy     :     0.006391

 11 C s       :     3.271768  s :     3.271768
      pz      :     1.011290  p :     3.072006
      px      :     0.964811
      py      :     1.095905
      dz2     :     0.005131  d :     0.044488
      dxz     :     0.009277
      dyz     :     0.012991
      dx2y2   :     0.010535
      dxy     :     0.006555

 12 C s       :     2.997086  s :     2.997086
      pz      :     0.844702  p :     2.521137
      px      :     0.850557
      py      :     0.825878
      dz2     :     0.017245  d :     0.125932
      dxz     :     0.023202
      dyz     :     0.017796
      dx2y2   :     0.022629
      dxy     :     0.045060

 13 C s       :     3.246833  s :     3.246833
      pz      :     0.999106  p :     3.065565
      px      :     0.937172
      py      :     1.129287
      dz2     :     0.004394  d :     0.043519
      dxz     :     0.009987
      dyz     :     0.012919
      dx2y2   :     0.010127
      dxy     :     0.006092

 14 C s       :     3.089830  s :     3.089830
      pz      :     1.036363  p :     3.146928
      px      :     0.985336
      py      :     1.125229
      dz2     :     0.004125  d :     0.042885
      dxz     :     0.010471
      dyz     :     0.012151
      dx2y2   :     0.010567
      dxy     :     0.005572

 15 C s       :     3.078107  s :     3.078107
      pz      :     0.775313  p :     2.410217
      px      :     0.867978
      py      :     0.766927
      dz2     :     0.025084  d :     0.114434
      dxz     :     0.046153
      dyz     :     0.025277
      dx2y2   :     0.009033
      dxy     :     0.008886

 16 H s       :     0.809838  s :     0.809838

 17 H s       :     0.820857  s :     0.820857

 18 H s       :     0.815472  s :     0.815472

 19 H s       :     0.822539  s :     0.822539

 20 H s       :     0.801318  s :     0.801318

 21 H s       :     0.818696  s :     0.818696

 22 H s       :     0.811044  s :     0.811044

 23 H s       :     0.644332  s :     0.644332

 24 H s       :     0.648447  s :     0.648447

 25 H s       :     0.841141  s :     0.841141

 26 H s       :     0.849164  s :     0.849164

 27 H s       :     0.831154  s :     0.831154

 28 H s       :     0.832223  s :     0.832223

 29 H s       :     0.813836  s :     0.813836

 30 H s       :     0.816627  s :     0.816627

 31 H s       :     0.567402  s :     0.567402



                     *******************************
                     * LOEWDIN POPULATION ANALYSIS *
                     *******************************

----------------------
LOEWDIN ATOMIC CHARGES
----------------------
   0 S :    0.364695
   1 O :   -0.533453
   2 O :   -0.520596
   3 O :   -0.423791
   4 N :   -0.263853
   5 N :   -0.266660
   6 C :   -0.109594
   7 C :   -0.109154
   8 C :   -0.341378
   9 C :   -0.442073
  10 C :   -0.317885
  11 C :   -0.298475
  12 C :    0.289270
  13 C :   -0.278707
  14 C :   -0.227285
  15 C :    0.367472
  16 H :    0.158510
  17 H :    0.157803
  18 H :    0.157956
  19 H :    0.150243
  20 H :    0.166673
  21 H :    0.165293
  22 H :    0.164072
  23 H :    0.299390
  24 H :    0.299353
  25 H :    0.146504
  26 H :    0.153192
  27 H :    0.167706
  28 H :    0.169526
  29 H :    0.188004
  30 H :    0.187318
  31 H :    0.379924

-------------------------------
LOEWDIN REDUCED ORBITAL CHARGES
-------------------------------
  0 S s       :     5.415946  s :     5.415946
      pz      :     3.402254  p :    10.120729
      px      :     2.948660
      py      :     3.769815
      dz2     :     0.011872  d :     0.098631
      dxz     :     0.045569
      dyz     :     0.011783
      dx2y2   :     0.014521
      dxy     :     0.014886

  1 O s       :     3.562714  s :     3.562714
      pz      :     1.506824  p :     4.730049
      px      :     1.742630
      py      :     1.480595
      dz2     :     0.037366  d :     0.240690
      dxz     :     0.028827
      dyz     :     0.064540
      dx2y2   :     0.049714
      dxy     :     0.060244

  2 O s       :     3.530375  s :     3.530375
      pz      :     1.648830  p :     4.730638
      px      :     1.361014
      py      :     1.720794
      dz2     :     0.059133  d :     0.259583
      dxz     :     0.064822
      dyz     :     0.039750
      dx2y2   :     0.055014
      dxy     :     0.040863

  3 O s       :     3.551622  s :     3.551622
      pz      :     1.477298  p :     4.628626
      px      :     1.710650
      py      :     1.440678
      dz2     :     0.084616  d :     0.243543
      dxz     :     0.076264
      dyz     :     0.048793
      dx2y2   :     0.019860
      dxy     :     0.014009

  4 N s       :     3.125683  s :     3.125683
      pz      :     1.573313  p :     4.068657
      px      :     1.205277
      py      :     1.290067
      dz2     :     0.008888  d :     0.069512
      dxz     :     0.009076
      dyz     :     0.010804
      dx2y2   :     0.019061
      dxy     :     0.021683

  5 N s       :     3.129137  s :     3.129137
      pz      :     1.574035  p :     4.068026
      px      :     1.209722
      py      :     1.284269
      dz2     :     0.008817  d :     0.069497
      dxz     :     0.008439
      dyz     :     0.010922
      dx2y2   :     0.020432
      dxy     :     0.020887

  6 C s       :     2.885939  s :     2.885939
      pz      :     1.063428  p :     3.101499
      px      :     1.055882
      py      :     0.982189
      dz2     :     0.027028  d :     0.122156
      dxz     :     0.014858
      dyz     :     0.029324
      dx2y2   :     0.035022
      dxy     :     0.015924

  7 C s       :     2.888103  s :     2.888103
      pz      :     1.084326  p :     3.099233
      px      :     1.033028
      py      :     0.981879
      dz2     :     0.028243  d :     0.121817
      dxz     :     0.013057
      dyz     :     0.027559
      dx2y2   :     0.033100
      dxy     :     0.019859

  8 C s       :     2.967053  s :     2.967053
      pz      :     1.104021  p :     3.277122
      px      :     1.074841
      py      :     1.098260
      dz2     :     0.009680  d :     0.097202
      dxz     :     0.024209
      dyz     :     0.027068
      dx2y2   :     0.018659
      dxy     :     0.017587

  9 C s       :     3.023571  s :     3.023571
      pz      :     1.119221  p :     3.340158
      px      :     1.108610
      py      :     1.112326
      dz2     :     0.007138  d :     0.078345
      dxz     :     0.019385
      dyz     :     0.024273
      dx2y2   :     0.017793
      dxy     :     0.009756

 10 C s       :     2.939234  s :     2.939234
      pz      :     1.105469  p :     3.299224
      px      :     1.055316
      py      :     1.138439
      dz2     :     0.008969  d :     0.079427
      dxz     :     0.020131
      dyz     :     0.020142
      dx2y2   :     0.018621
      dxy     :     0.011563

 11 C s       :     2.936574  s :     2.936574
      pz      :     1.106289  p :     3.282536
      px      :     1.060234
      py      :     1.116013
      dz2     :     0.008917  d :     0.079365
      dxz     :     0.018519
      dyz     :     0.021041
      dx2y2   :     0.019167
      dxy     :     0.011721

 12 C s       :     2.749745  s :     2.749745
      pz      :     0.848677  p :     2.688913
      px      :     0.900087
      py      :     0.940149
      dz2     :     0.033647  d :     0.272071
      dxz     :     0.047008
      dyz     :     0.040911
      dx2y2   :     0.050274
      dxy     :     0.100230

 13 C s       :     2.934180  s :     2.934180
      pz      :     1.094131  p :     3.266446
      px      :     1.039821
      py      :     1.132494
      dz2     :     0.007904  d :     0.078081
      dxz     :     0.020330
      dyz     :     0.020598
      dx2y2   :     0.018471
      dxy     :     0.010777

 14 C s       :     2.921851  s :     2.921851
      pz      :     1.088130  p :     3.231126
      px      :     1.028665
      py      :     1.114332
      dz2     :     0.006899  d :     0.074308
      dxz     :     0.020191
      dyz     :     0.019359
      dx2y2   :     0.018122
      dxy     :     0.009737

 15 C s       :     2.758421  s :     2.758421
      pz      :     0.968842  p :     2.620651
      px      :     0.913878
      py      :     0.737931
      dz2     :     0.063750  d :     0.253457
      dxz     :     0.104725
      dyz     :     0.050313
      dx2y2   :     0.017778
      dxy     :     0.016891

 16 H s       :     0.841490  s :     0.841490

 17 H s       :     0.842197  s :     0.842197

 18 H s       :     0.842044  s :     0.842044

 19 H s       :     0.849757  s :     0.849757

 20 H s       :     0.833327  s :     0.833327

 21 H s       :     0.834707  s :     0.834707

 22 H s       :     0.835928  s :     0.835928

 23 H s       :     0.700610  s :     0.700610

 24 H s       :     0.700647  s :     0.700647

 25 H s       :     0.853496  s :     0.853496

 26 H s       :     0.846808  s :     0.846808

 27 H s       :     0.832294  s :     0.832294

 28 H s       :     0.830474  s :     0.830474

 29 H s       :     0.811996  s :     0.811996

 30 H s       :     0.812682  s :     0.812682

 31 H s       :     0.620076  s :     0.620076



                      *****************************
                      * MAYER POPULATION ANALYSIS *
                      *****************************

  NA   - Mulliken gross atomic population
  ZA   - Total nuclear charge
  QA   - Mulliken gross atomic charge
  VA   - Mayer's total valence
  BVA  - Mayer's bonded valence
  FA   - Mayer's free valence

  ATOM       NA         ZA         QA         VA         BVA        FA
  0 S     15.9793    16.0000     0.0207     2.1686     2.1686    -0.0000
  1 O      8.4359     8.0000    -0.4359     2.1017     2.1017     0.0000
  2 O      8.5058     8.0000    -0.5058     1.9263     1.9263     0.0000
  3 O      8.3807     8.0000    -0.3807     2.0714     2.0714     0.0000
  4 N      7.3983     7.0000    -0.3983     2.8944     2.8944     0.0000
  5 N      7.4262     7.0000    -0.4262     2.8934     2.8934     0.0000
  6 C      6.2381     6.0000    -0.2381     3.8572     3.8572     0.0000
  7 C      6.0524     6.0000    -0.0524     3.7714     3.7714     0.0000
  8 C      6.0229     6.0000    -0.0229     3.6064     3.6064     0.0000
  9 C      6.3699     6.0000    -0.3699     3.8014     3.8014     0.0000
 10 C      6.3758     6.0000    -0.3758     3.6058     3.6058    -0.0000
 11 C      6.3883     6.0000    -0.3883     3.5656     3.5656    -0.0000
 12 C      5.6442     6.0000     0.3558     4.3796     4.3796    -0.0000
 13 C      6.3559     6.0000    -0.3559     3.6882     3.6882    -0.0000
 14 C      6.2796     6.0000    -0.2796     3.6594     3.6594    -0.0000
 15 C      5.6028     6.0000     0.3972     4.0572     4.0572    -0.0000
 16 H      0.8098     1.0000     0.1902     0.9503     0.9503     0.0000
 17 H      0.8209     1.0000     0.1791     0.9471     0.9471     0.0000
 18 H      0.8155     1.0000     0.1845     0.9420     0.9420    -0.0000
 19 H      0.8225     1.0000     0.1775     0.9407     0.9407     0.0000
 20 H      0.8013     1.0000     0.1987     0.9489     0.9489     0.0000
 21 H      0.8187     1.0000     0.1813     0.9593     0.9593    -0.0000
 22 H      0.8110     1.0000     0.1890     0.9574     0.9574     0.0000
 23 H      0.6443     1.0000     0.3557     0.8553     0.8553    -0.0000
 24 H      0.6484     1.0000     0.3516     0.8580     0.8580    -0.0000
 25 H      0.8411     1.0000     0.1589     0.9483     0.9483    -0.0000
 26 H      0.8492     1.0000     0.1508     0.9548     0.9548    -0.0000
 27 H      0.8312     1.0000     0.1688     0.9578     0.9578    -0.0000
 28 H      0.8322     1.0000     0.1678     0.9625     0.9625    -0.0000
 29 H      0.8138     1.0000     0.1862     0.9529     0.9529    -0.0000
 30 H      0.8166     1.0000     0.1834     0.9540     0.9540    -0.0000
 31 H      0.5674     1.0000     0.4326     0.8015     0.8015     0.0000

  Mayer bond orders larger than 0.100000
B(  0-S ,  8-C ) :   1.0271 B(  0-S ,  9-C ) :   1.0216 B(  1-O , 12-C ) :   1.9995 
B(  2-O , 15-C ) :   1.1367 B(  2-O , 31-H ) :   0.7402 B(  3-O , 15-C ) :   1.9465 
B(  4-N ,  6-C ) :   0.9746 B(  4-N , 12-C ) :   1.1269 B(  4-N , 23-H ) :   0.8097 
B(  5-N ,  7-C ) :   0.9544 B(  5-N , 12-C ) :   1.1207 B(  5-N , 24-H ) :   0.8191 
B(  6-C ,  7-C ) :   1.0023 B(  6-C ,  8-C ) :   0.9342 B(  6-C , 16-H ) :   0.8943 
B(  7-C ,  9-C ) :   0.9663 B(  7-C , 17-H ) :   0.8939 B(  8-C , 10-C ) :   0.9020 
B(  8-C , 18-H ) :   0.9356 B(  9-C , 19-H ) :   0.9270 B(  9-C , 20-H ) :   0.9320 
B( 10-C , 11-C ) :   0.8928 B( 10-C , 21-H ) :   0.9504 B( 10-C , 22-H ) :   0.9643 
B( 11-C , 13-C ) :   0.8461 B( 11-C , 25-H ) :   0.9820 B( 11-C , 26-H ) :   0.9572 
B( 13-C , 14-C ) :   0.9715 B( 13-C , 27-H ) :   0.9637 B( 13-C , 28-H ) :   0.9673 
B( 14-C , 15-C ) :   0.9645 B( 14-C , 29-H ) :   0.9200 B( 14-C , 30-H ) :   0.9247 



------------------
HIRSHFELD ANALYSIS
------------------

Total integrated alpha density =     64.999992416
Total integrated beta density  =     64.999992416

  ATOM     CHARGE      SPIN    
   0 S   -0.082537    0.000000
   1 O   -0.349683    0.000000
   2 O   -0.183892    0.000000
   3 O   -0.283202    0.000000
   4 N   -0.132391    0.000000
   5 N   -0.133644    0.000000
   6 C    0.037515    0.000000
   7 C    0.041129    0.000000
   8 C   -0.006630    0.000000
   9 C   -0.039381    0.000000
  10 C   -0.040387    0.000000
  11 C   -0.041201    0.000000
  12 C    0.182722    0.000000
  13 C   -0.038671    0.000000
  14 C   -0.037008    0.000000
  15 C    0.215389    0.000000
  16 H    0.027313    0.000000
  17 H    0.031731    0.000000
  18 H    0.029525    0.000000
  19 H    0.028789    0.000000
  20 H    0.047409    0.000000
  21 H    0.034525    0.000000
  22 H    0.029351    0.000000
  23 H    0.138148    0.000000
  24 H    0.144650    0.000000
  25 H    0.021175    0.000000
  26 H    0.022277    0.000000
  27 H    0.030560    0.000000
  28 H    0.029678    0.000000
  29 H    0.045828    0.000000
  30 H    0.044630    0.000000
  31 H    0.186297    0.000000

  TOTAL   0.000015    0.000000

-------------------------
CHELPG CHARGES GENERATION
-------------------------
Grid spacing                       ...     0.300000
Point Cut-Off                      ...     2.800000
Van-der-Waals Radii                ...        COSMO
Total charge                       ...            0
Dipole moment constraint           ...        FALSE


Number of points X direction       ...           57
Number of points Y direction       ...           35
Number of points Z direction       ...           29
Maximum number of possible points  ...        57855
Final number of points             ...        17741


Grid generated                     ...   0.0 sec
Potential calculated               ...   0.4 sec
RespFile stored                    ... ok
Charges calculated                 ...   0.1 sec
CHELPG Charges            
--------------------------------
  0   S   :      -0.239954
  1   O   :      -0.546819
  2   O   :      -0.614530
  3   O   :      -0.545512
  4   N   :      -0.554586
  5   N   :      -0.531471
  6   C   :       0.223072
  7   C   :       0.112361
  8   C   :      -0.137437
  9   C   :      -0.056993
 10   C   :       0.006718
 11   C   :      -0.167820
 12   C   :       0.568991
 13   C   :       0.063807
 14   C   :      -0.143294
 15   C   :       0.668878
 16   H   :       0.012002
 17   H   :       0.046090
 18   H   :       0.105133
 19   H   :       0.040697
 20   H   :       0.132252
 21   H   :       0.079677
 22   H   :       0.045445
 23   H   :       0.369992
 24   H   :       0.349777
 25   H   :       0.048840
 26   H   :       0.041387
 27   H   :       0.016139
 28   H   :       0.024665
 29   H   :       0.078279
 30   H   :       0.070152
[...]
 25:    517.26   0.004786   24.19  0.002887  (-0.026081 -0.046041  0.009355)
 26:    537.14   0.002032   10.27  0.001180  (-0.013761 -0.013256 -0.028553)
 27:    548.42   0.001699    8.58  0.000967  ( 0.028430  0.005022  0.011537)
 28:    598.87   0.000239    1.21  0.000124  (-0.004791  0.009664  0.002823)
 29:    623.97   0.004307   21.77  0.002154  (-0.043592  0.015350 -0.004281)
 30:    657.47   0.014813   74.86  0.007031  (-0.020003 -0.078724  0.020819)
 31:    672.52   0.000822    4.15  0.000381  (-0.010399 -0.014967  0.007003)
 32:    685.72   0.000735    3.72  0.000335  (-0.010084 -0.013185  0.007691)
 33:    730.95   0.001439    7.27  0.000614  (-0.004570 -0.018968  0.015284)
 34:    734.23   0.003785   19.13  0.001609  (-0.015590 -0.027719 -0.024441)
 35:    740.67   0.000470    2.38  0.000198  (-0.000063 -0.012161  0.007091)
 36:    796.54   0.000366    1.85  0.000143  (-0.002996 -0.011275 -0.002719)
 37:    824.54   0.000465    2.35  0.000176  (-0.004431 -0.006846  0.010465)
 38:    868.41   0.002668   13.48  0.000959  ( 0.029549 -0.002770  0.008836)
 39:    872.32   0.001258    6.36  0.000450  (-0.020135 -0.001504 -0.006517)
 40:    890.32   0.000202    1.02  0.000071  (-0.006108  0.002140 -0.005369)
 41:    920.60   0.001181    5.97  0.000400  ( 0.012779  0.014546 -0.005039)
 42:    956.56   0.000216    1.09  0.000070  ( 0.005691 -0.001844 -0.005884)
 43:    982.85   0.001525    7.70  0.000484  (-0.004490 -0.019665  0.008786)
 44:   1010.01   0.001920    9.70  0.000593  ( 0.014983  0.016138 -0.010409)
 45:   1035.33   0.003283   16.59  0.000990  ( 0.018811 -0.020317 -0.014934)
 46:   1048.26   0.004537   22.93  0.001351  ( 0.033213 -0.007838 -0.013637)
 47:   1061.94   0.002557   12.92  0.000751  (-0.026073  0.006871  0.004940)
 48:   1074.85   0.004769   24.10  0.001385  (-0.030489 -0.003673  0.021013)
 49:   1083.44   0.005585   28.23  0.001609  (-0.013856  0.037640  0.000133)
 50:   1119.45   0.014462   73.08  0.004031  ( 0.052735 -0.011793 -0.033337)
 51:   1121.01   0.004189   21.17  0.001166  ( 0.018602  0.006454 -0.027899)
 52:   1139.27   0.033661  170.11  0.009220  (-0.083117  0.032166  0.035738)
 53:   1165.21   0.000370    1.87  0.000099  (-0.002614  0.005608 -0.007798)
 54:   1180.07   0.002102   10.62  0.000556  ( 0.004115  0.022063  0.007230)
 55:   1225.20   0.000750    3.79  0.000191  ( 0.011851  0.005158 -0.004886)
 56:   1236.20   0.004575   23.12  0.001155  ( 0.033096  0.007508  0.001808)
 57:   1262.18   0.007458   37.69  0.001844  ( 0.040764 -0.008920 -0.010128)
 58:   1263.95   0.007186   36.31  0.001774  (-0.040863  0.005346 -0.008706)
 59:   1274.68   0.006213   31.40  0.001521  (-0.038306  0.005615  0.004720)
 60:   1285.98   0.005566   28.13  0.001351  ( 0.014895 -0.028760  0.017366)
 61:   1308.61   0.000607    3.07  0.000145  ( 0.006590  0.009794 -0.002323)
 62:   1321.80   0.003481   17.59  0.000822  (-0.026337 -0.011197  0.001678)
 63:   1327.63   0.001164    5.88  0.000274  (-0.007285  0.014576  0.002834)
 64:   1338.21   0.000047    0.24  0.000011  (-0.000372  0.001664  0.002847)
 65:   1350.37   0.003730   18.85  0.000862  (-0.011833  0.026693  0.003065)
 66:   1363.05   0.005674   28.67  0.001299  ( 0.026666  0.023980 -0.003592)
 67:   1372.66   0.002523   12.75  0.000573  (-0.009265 -0.021579 -0.004691)
 68:   1388.20   0.000112    0.56  0.000025  (-0.001884  0.000411  0.004621)
 69:   1397.50   0.005056   25.55  0.001129  (-0.031628  0.010533  0.004219)
 70:   1411.58   0.007058   35.67  0.001560  ( 0.037893 -0.006952 -0.008720)
 71:   1415.65   0.001298    6.56  0.000286  ( 0.007841 -0.013899  0.005605)
 72:   1425.17   0.016242   82.08  0.003556  (-0.058491  0.008608 -0.007819)
 73:   1462.93   0.003289   16.62  0.000702  (-0.015198 -0.002355 -0.021565)
 74:   1482.56   0.000668    3.37  0.000141  (-0.002950  0.011400  0.001377)
 75:   1492.47   0.000182    0.92  0.000038  ( 0.003231  0.000068  0.005252)
 76:   1498.59   0.000054    0.27  0.000011  (-0.002100  0.002463 -0.000912)
 77:   1515.72   0.002157   10.90  0.000444  ( 0.008539  0.003570  0.018933)
 78:   1786.81   0.048740  246.31  0.008512  (-0.013406 -0.030459 -0.086051)
 79:   1795.54   0.139108  703.00  0.024177  ( 0.039512  0.133781 -0.068691)
 80:   2966.71   0.003392   17.14  0.000357  ( 0.012551  0.001049  0.014079)
 81:   2968.39   0.001386    7.00  0.000146  ( 0.001962 -0.011660 -0.002427)
 82:   2976.71   0.001589    8.03  0.000167  (-0.012268 -0.002711  0.002952)
 83:   2989.04   0.019058   96.31  0.001990  (-0.015009 -0.009611  0.040891)
 84:   2994.91   0.001725    8.72  0.000180  (-0.004096 -0.012637  0.001818)
 85:   2996.32   0.002356   11.91  0.000245  ( 0.006565 -0.009142 -0.010896)
 86:   3006.55   0.002038   10.30  0.000212  (-0.007910 -0.009115 -0.008117)
 87:   3009.90   0.015621   78.94  0.001620  ( 0.019220 -0.020786  0.028603)
 88:   3014.17   0.011063   55.91  0.001145  (-0.003528 -0.005361 -0.033229)
 89:   3023.62   0.000175    0.88  0.000018  (-0.000236 -0.003975  0.001481)
 90:   3048.68   0.000498    2.52  0.000051  ( 0.001818  0.004319 -0.005391)
 91:   3059.35   0.014027   70.89  0.001431  ( 0.009724  0.035899 -0.006894)
 92:   3081.24   0.002663   13.46  0.000270  (-0.013187 -0.005977  0.007749)
 93:   3602.08   0.005032   25.43  0.000436  ( 0.020599 -0.000767 -0.003320)
 94:   3613.41   0.004431   22.39  0.000383  (-0.017363  0.008976  0.000801)
 95:   3672.68   0.007322   37.00  0.000622  ( 0.024101 -0.004418  0.004663)

* The epsilon (eps) is given for a Dirac delta lineshape.
** The dipole moment derivative (T) already includes vibrational overlap.

The first frequency considered to be a vibration is 6
The total number of vibrations considered is 90


--------------------------
THERMOCHEMISTRY AT 298.15K
--------------------------

Temperature         ...   298.15 K
Pressure            ...     1.00 atm
Total Mass          ...   244.31 AMU
Quasi RRHO          ...     True
Cut-Off Frequency   ...     1.00 cm^-1

Throughout the following assumptions are being made:
  (1) The electronic state is orbitally nondegenerate
  (2) There are no thermally accessible electronically excited states
  (3) Hindered rotations indicated by low frequency modes are not
      treated as such but are treated as vibrations and this may
      cause some error
  (4) All equations used are the standard statistical mechanics
      equations for an ideal gas
  (5) All vibrations are strictly harmonic

freq.      14.62  E(vib)   ...       0.57 
freq.      25.48  E(vib)   ...       0.56 
freq.      51.62  E(vib)   ...       0.52 
freq.      59.47  E(vib)   ...       0.51 
freq.      69.10  E(vib)   ...       0.50 
freq.      87.15  E(vib)   ...       0.48 
freq.     102.75  E(vib)   ...       0.46 
freq.     131.84  E(vib)   ...       0.42 
freq.     137.94  E(vib)   ...       0.42 
freq.     182.83  E(vib)   ...       0.37 
freq.     202.94  E(vib)   ...       0.35 
freq.     253.05  E(vib)   ...       0.30 
freq.     291.89  E(vib)   ...       0.27 
freq.     334.48  E(vib)   ...       0.24 
freq.     390.64  E(vib)   ...       0.20 
freq.     401.95  E(vib)   ...       0.19 
freq.     405.43  E(vib)   ...       0.19 
freq.     452.48  E(vib)   ...       0.16 
freq.     505.90  E(vib)   ...       0.14 
freq.     517.26  E(vib)   ...       0.13 
freq.     537.14  E(vib)   ...       0.12 
freq.     548.42  E(vib)   ...       0.12 
freq.     598.87  E(vib)   ...       0.10 
freq.     623.97  E(vib)   ...       0.09 
freq.     657.47  E(vib)   ...       0.08 
freq.     672.52  E(vib)   ...       0.08 
freq.     685.72  E(vib)   ...       0.07 
freq.     730.95  E(vib)   ...       0.06 
freq.     734.23  E(vib)   ...       0.06 
freq.     740.67  E(vib)   ...       0.06 
freq.     796.54  E(vib)   ...       0.05 
freq.     824.54  E(vib)   ...       0.04 
freq.     868.41  E(vib)   ...       0.04 
freq.     872.32  E(vib)   ...       0.04 
freq.     890.32  E(vib)   ...       0.04 
freq.     920.60  E(vib)   ...       0.03 
freq.     956.56  E(vib)   ...       0.03 
freq.     982.85  E(vib)   ...       0.02 
freq.    1010.01  E(vib)   ...       0.02 
freq.    1035.33  E(vib)   ...       0.02 
freq.    1048.26  E(vib)   ...       0.02 
freq.    1061.94  E(vib)   ...       0.02 
freq.    1074.85  E(vib)   ...       0.02 
freq.    1083.44  E(vib)   ...       0.02 
freq.    1119.45  E(vib)   ...       0.01 
freq.    1121.01  E(vib)   ...       0.01 
freq.    1139.27  E(vib)   ...       0.01 
freq.    1165.21  E(vib)   ...       0.01 
freq.    1180.07  E(vib)   ...       0.01 
freq.    1225.20  E(vib)   ...       0.01 
freq.    1236.20  E(vib)   ...       0.01 
freq.    1262.18  E(vib)   ...       0.01 
freq.    1263.95  E(vib)   ...       0.01 
freq.    1274.68  E(vib)   ...       0.01 
freq.    1285.98  E(vib)   ...       0.01 
freq.    1308.61  E(vib)   ...       0.01 
freq.    1321.80  E(vib)   ...       0.01 
freq.    1327.63  E(vib)   ...       0.01 
freq.    1338.21  E(vib)   ...       0.01 
freq.    1350.37  E(vib)   ...       0.01 
freq.    1363.05  E(vib)   ...       0.01 
freq.    1372.66  E(vib)   ...       0.01 
freq.    1388.20  E(vib)   ...       0.00 
freq.    1397.50  E(vib)   ...       0.00 
freq.    1411.58  E(vib)   ...       0.00 
freq.    1415.65  E(vib)   ...       0.00 
freq.    1425.17  E(vib)   ...       0.00 
freq.    1462.93  E(vib)   ...       0.00 
freq.    1482.56  E(vib)   ...       0.00 
freq.    1492.47  E(vib)   ...       0.00 
freq.    1498.59  E(vib)   ...       0.00 
freq.    1515.72  E(vib)   ...       0.00 
freq.    1786.81  E(vib)   ...       0.00 
freq.    1795.54  E(vib)   ...       0.00 
freq.    2966.71  E(vib)   ...       0.00 
freq.    2968.39  E(vib)   ...       0.00 
freq.    2976.71  E(vib)   ...       0.00 
freq.    2989.04  E(vib)   ...       0.00 
freq.    2994.91  E(vib)   ...       0.00 
freq.    2996.32  E(vib)   ...       0.00 
freq.    3006.55  E(vib)   ...       0.00 
freq.    3009.90  E(vib)   ...       0.00 
freq.    3014.17  E(vib)   ...       0.00 
freq.    3023.62  E(vib)   ...       0.00 
freq.    3048.68  E(vib)   ...       0.00 
freq.    3059.35  E(vib)   ...       0.00 
freq.    3081.24  E(vib)   ...       0.00 
freq.    3602.08  E(vib)   ...       0.00 
freq.    3613.41  E(vib)   ...       0.00 
freq.    3672.68  E(vib)   ...       0.00 

------------
INNER ENERGY
------------

The inner energy is: U= E(el) + E(ZPE) + E(vib) + E(rot) + E(trans)
    E(el)   - is the total energy from the electronic structure calculation
              = E(kin-el) + E(nuc-el) + E(el-el) + E(nuc-nuc)
    E(ZPE)  - the the zero temperature vibrational energy from the frequency calculation
    E(vib)  - the the finite temperature correction to E(ZPE) due to population
              of excited vibrational states
    E(rot)  - is the rotational thermal energy
    E(trans)- is the translational thermal energy

Summary of contributions to the inner energy U:
Electronic energy                ...  -1123.74106675 Eh
Zero point energy                ...      0.26273363 Eh     164.87 kcal/mol
Thermal vibrational correction   ...      0.01345515 Eh       8.44 kcal/mol
Thermal rotational correction    ...      0.00141627 Eh       0.89 kcal/mol
Thermal translational correction ...      0.00141627 Eh       0.89 kcal/mol
-----------------------------------------------------------------------
Total thermal energy                  -1123.46204543 Eh


Summary of corrections to the electronic energy:
(perhaps to be used in another calculation)
Total thermal correction                  0.01628770 Eh      10.22 kcal/mol
Non-thermal (ZPE) correction              0.26273363 Eh     164.87 kcal/mol
-----------------------------------------------------------------------
Total correction                          0.27902133 Eh     175.09 kcal/mol


--------
ENTHALPY
--------

The enthalpy is H = U + kB*T
                kB is Boltzmann's constant
Total thermal energy              ...  -1123.46204543 Eh 
Thermal Enthalpy correction       ...      0.00094421 Eh       0.59 kcal/mol
-----------------------------------------------------------------------
Total Enthalpy                    ...  -1123.46110122 Eh


Note: Only C1 symmetry has been detected, increase convergence thresholds 
      if your molecule has a higher symmetry. Symmetry factor of 1.0 is   
      used for the rotational entropy correction. 
 

Note: Rotational entropy computed according to Herzberg 
Infrared and Raman Spectra, Chapter V,1, Van Nostrand Reinhold, 1945 
Point Group:  C1, Symmetry Number:   1  
Rotational constants in cm-1:     0.031778     0.005684     0.005204 

Vibrational entropy computed according to the QRRHO of S. Grimme
Chem.Eur.J. 2012 18 9955 using a reference frequency of 100.0 cm-1


-------
ENTROPY
-------

The entropy contributions are T*S = T*(S(el)+S(vib)+S(rot)+S(trans))
     S(el)   - electronic entropy
     S(vib)  - vibrational entropy
     S(rot)  - rotational entropy
     S(trans)- translational entropy
The entropies will be listed as multiplied by the temperature to get
units of energy

Electronic entropy                ...      0.00000000 Eh      0.00 kcal/mol
Vibrational entropy               ...      0.02446492 Eh     15.35 kcal/mol
Rotational entropy                ...      0.01606216 Eh     10.08 kcal/mol
Translational entropy             ...      0.02013635 Eh     12.64 kcal/mol
-----------------------------------------------------------------------
Final entropy term                ...      0.06066342 Eh     38.07 kcal/mol

In case the symmetry of your molecule has not been determined correctly
or in case you have a reason to use a different symmetry number we print 
out the resulting rotational entropy values for sn=1,12:

 non-linear molecules -----------------------------------
|  sn= 1 | S(rot)=       0.01606216 Eh     10.08 kcal/mol|
|  sn= 2 | S(rot)=       0.01540770 Eh      9.67 kcal/mol|
|  sn= 3 | S(rot)=       0.01502487 Eh      9.43 kcal/mol|
|  sn= 4 | S(rot)=       0.01475325 Eh      9.26 kcal/mol|
|  sn= 5 | S(rot)=       0.01454256 Eh      9.13 kcal/mol|
|  sn= 6 | S(rot)=       0.01437041 Eh      9.02 kcal/mol|
|  sn= 7 | S(rot)=       0.01422487 Eh      8.93 kcal/mol|
|  sn= 8 | S(rot)=       0.01409879 Eh      8.85 kcal/mol|
|  sn= 9 | S(rot)=       0.01398758 Eh      8.78 kcal/mol|
|  sn=10 | S(rot)=       0.01388810 Eh      8.71 kcal/mol|
|  sn=11 | S(rot)=       0.01379811 Eh      8.66 kcal/mol|
|  sn=12 | S(rot)=       0.01371596 Eh      8.61 kcal/mol|
 linear molecules ---------------------------------------
|  Dinfh | S(rot)=       0.01029054 Eh      6.46 kcal/mol|
|  Cinfv | S(rot)=       0.01094500 Eh      6.87 kcal/mol|
 --------------------------------------------------------


-------------------
GIBBS FREE ENERGY
-------------------

The Gibbs free energy is G = H - T*S

Total enthalpy                    ...  -1123.46110122 Eh 
Total entropy correction          ...     -0.06066342 Eh    -38.07 kcal/mol
-----------------------------------------------------------------------
Final Gibbs free energy         ...  -1123.52176464 Eh

For completeness - the Gibbs free energy minus the electronic energy
G-E(el)                           ...      0.21930212 Eh    137.61 kcal/mol


Maximum memory used throughout the entire PROP-calculation: 93.3 MB

--------------------------------
SUGGESTED CITATIONS FOR THIS RUN
--------------------------------

Below you find a list of papers that are relevant to this ORCA run
We neither can nor want to force you to cite these papers, but we appreciate if you do
You receive ORCA, which is the product of decades of hard work by many enthusiastic individuals, for free
The only thing we kindly ask in return is that you cite our papers,
We deeply appreciate it, if you show your appreciation for ORCA by not just citing the generic ORCA reference.

Please note that relegating all ORCA citations to the supporting information does *not* help us.
SI sections are not indexed - citations you put there will not count into any citation statistics
But we need these citations in order to attract the funding resources that allow us to do what we are doing

Therefore, if you are a happy ORCA user, please consider citing a few of the papers listed below in the main body of your paper

In addition to the list printed below, the program has created the file m1_00_Vitamin_B7-B97-3C-TZ.bibtex that contains the list in bibtex format
You can import this file easily into all common literature databanks and citation aid programs


List of essential papers. We consider these as the minimum necessary citations

  1. Neese,F.
     Software update: the ORCA program system, version 5.0
     WIRES Comput. Molec. Sci., 2022 12(1)e1606
     doi.org/10.1002/wcms.1606

List of papers to cite with high priority. The work reported in these papers was absolutely
necessary for this run to complete.
Our perspective: the developers of density functionals and basis sets usually get cited in chemistry papers
Good! But without the algorithms to do something with them, the functionals or basis sets would not do anything.
Hence, in our opinion, the algorithm design and method developments papers are equally worthy of getting cited

  1. Neese,F.
     An improvement of the resolution of the identity approximation for the formation of the Coulomb matrix
     J. Comp. Chem., 2003 24(14)1740-1747
     doi.org/10.1002/jcc.10318
  2. Bykov,D.; Petrenko,T.; Izsak,R.; Kossmann,S.; Becker,U.; Valeev,E.; Neese,F.
     Efficient implementation of the analytic second derivatives of Hartree-Fock and hybrid DFT energies: a detailed analysis of different approximations
     Molec. Phys., 2015 113 1961-1977
     doi.org/10.1080/00268976.2015.1025114
  3. Neese,F.
     The SHARK Integral Generation and Digestion System
     J. Comp. Chem., 2022  1-16
     doi.org/10.1002/jcc.26942
  4. Grimme,S.; Antony,J.; Ehrlich,S.; Krieg,H.
     A consistent and accurate ab initio parametrization of density functional dispersion correction (DFT-D) for the 94 elements H-Pu
     J. Chem. Phys., 2010 132 154104
     doi.org/10.1063/1.3382344
  5. Grimme,S.; Ehrlich,S.; Goerigk,L.
     Effect of the damping function in dispersion corrected density functional theory
     J. Comput. Chem., 2011 32(7)1456-1465
     doi.org/10.1002/jcc.21759

List of suggested additional citations. These are papers that are important in the 'surrounding' of 
of this run, or papers that preceded the highly important papers. If you like your results we are grateful for a citation.

  1. Neese,F.
     The ORCA program system
     WIRES Comput. Molec. Sci., 2012 2(1)73-78
     doi.org/10.1002/wcms.81
  2. Neese,F.
     Software update: the ORCA program system, version 4.0
     WIRES Comput. Molec. Sci., 2018 8(1)1-6
     doi.org/10.1002/wcms.1327
  3. Neese,F.; Wennmohs,F.; Becker,U.; Riplinger,C.
     The ORCA quantum chemistry program package
     J. Chem. Phys., 2020 152 Art. No. L224108
     doi.org/10.1063/5.0004608

List of optional additional citations

  1. Neese,F.
     Approximate second-order SCF convergence for spin unrestricted wavefunctions
     Chem. Phys. Lett., 2000 325(1-3)93-98
     doi.org/10.1016/s0009-2614(00)00662-x

Timings for individual modules:

Sum of individual times          ...      450.354 sec (=   7.506 min)
Startup calculation              ...       81.377 sec (=   1.356 min)  18.1 %
SCF iterations                   ...      139.815 sec (=   2.330 min)  31.0 %
Property integrals               ...       62.711 sec (=   1.045 min)  13.9 %
SCF Response                     ...       58.554 sec (=   0.976 min)  13.0 %
Property calculations            ...       26.909 sec (=   0.448 min)   6.0 %
SCF Gradient evaluation          ...       79.751 sec (=   1.329 min)  17.7 %
Geometry relaxation              ...        1.236 sec (=   0.021 min)   0.3 %
                             ****ORCA TERMINATED NORMALLY****
TOTAL RUN TIME: 0 days 0 hours 7 minutes 43 seconds 662 msec
