
                                 *****************
                                 * O   R   C   A *
                                 *****************

                                            #,                                       
                                            ###                                      
                                            ####                                     
                                            #####                                    
                                            ######                                   
                                           ########,                                 
                                     ,,################,,,,,                         
                               ,,#################################,,                 
                          ,,##########################################,,             
                       ,#########################################, ''#####,          
                    ,#############################################,,   '####,        
                  ,##################################################,,,,####,       
                ,###########''''           ''''###############################       
              ,#####''   ,,,,##########,,,,          '''####'''          '####       
            ,##' ,,,,###########################,,,                        '##       
           ' ,,###''''                  '''############,,,                           
         ,,##''                                '''############,,,,        ,,,,,,###''
      ,#''                                            '''#######################'''  
     '                                                          ''''####''''         
             ,#######,   #######,   ,#######,      ##                                
            ,#'     '#,  ##    ##  ,#'     '#,    #''#        ,####,   ,####,        
            ##       ##  ##   ,#'  ##            #'  '#       #'       #'  '#        
            ##       ##  #######   ##           ,######,      #####,   #    #        
            '#,     ,#'  ##    ##  '#,     ,#' ,#      #,     #,   #   #,  ,#        
             '#######'   ##     ##  '#######'  #'      '#     '####' # '####'        



                #########################################################
                #                        -***-                          #
                #          Department of theory and spectroscopy        #
                #                                                       #
                #                      Frank Neese                      #
                #                                                       #
                #     Directorship, Architecture, Infrastructure        #
                #                    SHARK, DRIVERS                     #
                #        Core code/Algorithms in most modules           #
                #                                                       #
                #        Max Planck Institute fuer Kohlenforschung      #
                #                Kaiser Wilhelm Platz 1                 #
                #                 D-45470 Muelheim/Ruhr                 #
                #                      Germany                          #
                #                                                       #
                #                  All rights reserved                  #
                #                        -***-                          #
                #########################################################


                         Program Version 6.0.1  -  RELEASE   -


 With contributions from (in alphabetic order):
[Max-Planck-Institut fuer Kohlenforschung]                               
  Daniel Aravena         : Magnetic Suceptibility                        
  Michael Atanasov       : Ab Initio Ligand Field Theory (pilot matlab implementation)
  Alexander A. Auer      : GIAO ZORA, VPT2 properties, NMR spectrum      
  Ute Becker             : All parallelization in ORCA, NUMFREQ, NUMCALC 
  Giovanni Bistoni       : ED, misc. LED, open-shell LED, HFLD           
  Martin Brehm           : Molecular dynamics                            
  Dmytro Bykov           : pre 5.0 version of the SCF Hessian            
  Marcos Casanova-Páez   : Triplet and SCS-CIS(D). UHF-(DLPNO)-IP/EA/STEOM-CCSD. UHF-CVS-IP/STEOM-CCSD   
  Vijay G. Chilkuri      : MRCI spin determinant printing, contributions to CSF-ICE 
  Pauline Colinet        : FMM embedding                                 
  Dipayan Datta          : RHF DLPNO-CCSD density                        
  Achintya Kumar Dutta   : EOM-CC, STEOM-CC                              
  Nicolas Foglia         : Exact transition moments, OPA infrastructure, MCD improvements    
  Dmitry Ganyushin       : Spin-Orbit,Spin-Spin,Magnetic field MRCI      
  Miquel Garcia-Rates    : C-PCM and meta-GGA Hessian, CCSD/C-PCM, Gaussian charge scheme 
  Tiago L. C. Gouveia    : GS-ROHF, GS-ROCIS                             
  Yang Guo               : DLPNO-NEVPT2, F12-NEVPT2, CIM, IAO-localization        
  Andreas Hansen         : Spin unrestricted coupled pair/coupled cluster methods 
  Ingolf Harden          : AUTO-CI MPn and infrastructure                
  Benjamin Helmich-Paris : MC-RPA, TRAH-(SCF,CASSCF), AVAS, COSX integrals, SCF dyn. polar. 
  Lee Huntington         : MR-EOM, pCC                                   
  Robert Izsak           : Overlap fitted RIJCOSX, COSX-SCS-MP3, EOM     
  Riya Kayal             : Wick's Theorem for AUTO-CI, AUTO-CI UHF-CCSDT 
  Emily Kempfer          : AUTO-CI, RHF CISDT and CCSDT                  
  Christian Kollmar      : KDIIS, OOCD, Brueckner-CCSD(T), CCSD density, CASPT2, CASPT2-K, improved NEVPT2 
  Axel Koslowski         : Symmetry handling                             
  Simone Kossmann        : meta-GGA functionals, TD-DFT gradient, OOMP2, (MP2 Hessian; deprecated post 5.0) 
  Lucas Lang             : DCDCAS                                        
  Marvin Lechner         : AUTO-CI (C++ implementation), FIC-MRCC        
  Spencer Leger          : CASSCF response                               
  Dagmar Lenk            : GEPOL surface, SMD, ORCA-2-JSON               
  Dimitrios Liakos       : Extrapolation schemes; Compound Job, initial MDCI parallelization 
  Dimitrios Manganas     : Further ROCIS development; embedding schemes. LFT, Crystal Embedding 
  Dimitrios Pantazis     : SARC Basis sets                               
  Anastasios Papadopoulos: AUTO-CI, single reference methods and gradients 
  Taras Petrenko         : pre 6.0 DFT Hessian and TD-DFT gradient, (ASA, deprecated), ECA, 1-Electron XAS/XES, NRVS 
  Peter Pinski           : DLPNO-MP2, DLPNO-MP2 Gradient                 
  Christoph Reimann      : Effective Core Potentials                     
  Marius Retegan         : Local ZFS, SOC                                
  Christoph Riplinger    : Optimizer, TS searches, QM/MM, DLPNO-CCSD(T), (RO)-DLPNO pert. Triples 
  Michael Roemelt        : Original ROCIS implementation                 
  Masaaki Saitow         : Open-shell DLPNO-CCSD energy and density      
  Barbara Sandhoefer     : DKH picture change effects                    
  Kantharuban Sivalingam : CASSCF convergence/infrastructure, NEVPT2 and variants, FIC-MRCI 
  Bernardo de Souza      : ESD, SOC TD-DFT                               
  Georgi L. Stoychev     : AutoAux, RI-MP2 NMR, DLPNO-MP2 response, X2C  
  Van Anh Tran           : RI-MP2 g-tensors                              
  Willem Van den Heuvel  : Paramagnetic NMR                              
  Zikuan Wang            : NOTCH, Electric field optimization            
  Frank Wennmohs         : Technical directorship and infrastructure     
  Hang Xu                : AUTO-CI-Response properties                   
                                                                         
[FACCTs GmbH]                                                            
  Markus Bursch, Miquel Garcia-Rates, Christoph Riplinger, Bernardo de Souza, Georgi L. Stoychev 
                                                                 
  APM, Basis sets (HGBS, AHGBS, def-TZVP (Ac-Lr), def2-XVPD (La-Lu)), CI-OPT, improved COSX, DLPNO-Multilevel,           
  DOCKER, DRACO, updates on ESD, GOAT, IRC, LR-CPCM, MBIS, meta-GGA TD-DFT gradient, ML-optimized integration grids, 
  MM, NACMEs, nearIR, NEB, NEB-TS, NL-DFT gradient (VV10), 2- and 3-layer-ONIOM, interface openCOSMO-RS, QMMM,   
  Crystal-QMMM, SF, symmetry and pop. for TD-DFT, r2SCAN hybrids, SOLVATOR                                   
                                                                         
[Other institutions]                                                     
  V. Asgeirsson          : NEB                                           
  Christoph Bannwarth    : sTDA-DFT, sTD-DFT, PBEh-3c, B97-3c, D3        
  Sebastian Ehlert       : rSCAN, r2SCAN, r2SCAN-3c, D4, dhf basis sets  
  Marvin Friede          : D4 for Fr, Ra, Ac-Lr                          
  Lars Goerigk           : TD-DFT with DH, B97 family of functionals     
  Stefan Grimme          : VdW corrections, initial TS optimization, DFT functionals, gCP, sTDA/sTD-DF 
  Waldemar Hujo          : DFT-NL                                        
  H. Jonsson             : NEB                                           
  Holger Kruse           : gCP                                           
  Marcel Mueller         : wB97X-3c, vDZP basis set                      
  Hagen Neugebauer       : wr2SCAN                                       
  Tobias Risthaus        : range-separated hybrid DFT                    
  Lukas Wittmann         : regularized MP2, r2SCAN double-hybrids, wr2SCAN        
                                                                         
We gratefully acknowledge several colleagues who have allowed us to      
interface, adapt or use parts of their codes:                            
  Ed Valeev, F. Pavosevic, A. Kumar             : LibInt (2-el integral package), F12 methods 
  Garnet Chan, S. Sharma, J. Yang, R. Olivares  : DMRG                   
  Ulf Ekstrom                                   : XCFun DFT Library      
  Mihaly Kallay                                 : mrcc  (arbitrary order and MRCC methods)
  Frank Weinhold                                : gennbo (NPA and NBO analysis)           
  Simon Mueller                                 : openCOSMO-RS                            
  Christopher J. Cramer and Donald G. Truhlar   : smd solvation model                     
  S Lehtola, MJT Oliveira, MAL Marques          : LibXC Library                           
  Liviu Ungur et al                             : ANISO software                          


 Your calculation uses the libint2 library for the computation of 2-el integrals
 For citations please refer to: http://libint.valeyev.net

 Your ORCA version has been built with support for libXC version: 6.2.2
 For citations please refer to: https://libxc.gitlab.io

 This ORCA versions uses:
   CBLAS   interface :  Fast vector & matrix operations
   LAPACKE interface :  Fast linear algebra routines
   SCALAPACK package :  Parallel linear algebra routines
   Shared memory     :  Shared parallel matrices
   BLAS/LAPACK       :  OpenBLAS 0.3.27  USE64BITINT DYNAMIC_ARCH NO_AFFINITY Zen SINGLE_THREADED
        Core in use  :  Zen
   Copyright (c) 2011-2014, The OpenBLAS Project


NOTE: MaxCore=6000 MB was set to SCF,MP2,MDCI,CIPSI,MRCI and CIS
      => If you want to overwrite this, your respective input block should be placed after the MaxCore statement
Your calculation utilizes the atom-pairwise dispersion correction
with the Becke-Johnson damping scheme (D3BJ)


Your calculation employs the composite approach B97-3c by Grimme and coworkers.
For the correct reference, please check the publication list of the Grimme group:
http://www.thch.uni-bonn.de/tc/index.php?section=publikationen&subsection=grimme#2017
   

XCFun DFT library Copyright 2009-2010 Ulf Ekstrom and contributors.
See http://admol.org/xcfun for more information.
This is free software; see the source code for copying conditions.
There is ABSOLUTELY NO WARRANTY; not even for MERCHANTABILITY or FITNESS FOR A PARTICULAR PURPOSE.
For details see the documentation.
Scientific users of this library should cite U. Ekstrom, L. Visscher, R. Bast, A. J. Thorvaldsen and K. Ruud;
J.Chem.Theor.Comp. 2010, DOI: 10.1021/ct100117s
XCFun Version 0.99 

================================================================================

----- Orbital basis set information -----
Your calculation utilizes the basis: def2-mTZVP
----- AuxJ basis set information -----
Your calculation utilizes the basis: def2-mTZVP/J
================================================================================
                                        WARNINGS
                       Please study these warnings very carefully!
================================================================================


WARNING: Geometry Optimization
  ===> : Switching off AutoStart
         For restart on a previous wavefunction, please use MOREAD

================================================================================
                                       INPUT FILE
================================================================================
NAME = m1_00_Vitamin_B6-B97-3C-TZ.inp
|  1> %pal nprocs 16 end
|  2> %MaxCore 6000
|  3> # put your comments here
|  4> ! B97-3C  OPT  FREQ DEFGRID3 NOTRAH CHELPG
|  5> %scf MaxIter 800 end
|  6> %output
|  7> Print [P_Hirshfeld] 1
|  8> end
|  9> %geom
| 10> MaxIter 3000
| 11>  TolE 1e-6 #TolE 5e-6 Energy change (a.u.)
| 12>  TolRMSG 3e-5 #TolRMSG 1e-4 RMS gradient (a.u.)
| 13>  TolMaxG 1e-4 #TolMaxG 3e-3 Max. element of gradient (a.u.)
| 14>  TolRMSD 2e-3 #TolRMSD 2e-3 RMS displacement (a.u.)
| 15>  TolMaxD 4e-3 #TolMaxD 4e-3 Max. displacement (a.u.)
| 16> end
| 17> * xyz 0 1
| 18>  O      1.638000000      1.842100000     -0.509100000
| 19>  O     -1.394800000      2.403400000      0.909500000
| 20>  O     -2.907100000     -1.231500000     -0.939700000
| 21>  N      1.304200000     -1.695700000      0.314000000
| 22>  C     -0.326000000      0.536200000     -0.104200000
| 23>  C     -0.893800000     -0.694500000      0.206600000
| 24>  C      1.055800000      0.652300000     -0.206100000
| 25>  C      1.819700000     -0.483300000      0.010200000
| 26>  C     -1.195000000      1.732000000     -0.327100000
| 27>  C     -2.367000000     -0.877000000      0.328100000
| 28>  C     -0.042700000     -1.769800000      0.404400000
| 29>  C      3.308700000     -0.414200000     -0.086500000
| 30>  H     -0.727900000      2.433200000     -1.028000000
| 31>  H     -2.164300000      1.477800000     -0.766900000
| 32>  H     -2.596800000     -1.688000000      1.029000000
| 33>  H     -2.886800000      0.005100000      0.712500000
| 34>  H     -0.424100000     -2.756900000      0.647300000
| 35>  H      3.714200000      0.285000000      0.651800000
| 36>  H      3.755600000     -1.394600000      0.112400000
| 37>  H      3.619200000     -0.112100000     -1.091900000
| 38>  H      2.603800000      1.763900000     -0.544600000
| 39>  H     -1.953400000      3.178100000      0.726800000
| 40>  H     -2.328400000     -1.898000000     -1.347400000
| 41> *
| 42> 
| 43> 
| 44> 
| 45> 
| 46>                          ****END OF INPUT****
================================================================================

                       *****************************
                       * Geometry Optimization Run *
                       *****************************

Geometry optimization settings:
Update method            Update   .... BFGS
Choice of coordinates    CoordSys .... (2022) Redundant Internals
Initial Hessian          InHess   .... Almloef's Model
Max. no of cycles        MaxIter  .... 3000

Convergence Tolerances:
Energy Change            TolE     ....  1.0000e-06 Eh
Max. Gradient            TolMAXG  ....  1.0000e-04 Eh/bohr
RMS Gradient             TolRMSG  ....  3.0000e-05 Eh/bohr
Max. Displacement        TolMAXD  ....  4.0000e-03 bohr
RMS Displacement         TolRMSD  ....  2.0000e-03 bohr
Strict Convergence                .... False

------------------------------------------------------------------------------
                        ORCA OPTIMIZATION COORDINATE SETUP
------------------------------------------------------------------------------

The optimization will be done in redundant internal coordinates (2022)
Making redundant internal coordinates   ...  (2022 redundants) done
Evaluating the initial hessian          ...  (Almloef) done
Evaluating the coordinates              ...  done
Calculating the B-matrix                .... done
Calculating the G-matrix                .... done
Diagonalizing the G-matrix              .... done
Small eigenvalue found = 2.403e-02
The first mode is                       ....   40
The number of degrees of freedom        ....   63

    -----------------------------------------------------------------
                    Redundant Internal Coordinates


    -----------------------------------------------------------------
         Definition                    Initial Value    Approx d2E/dq
    -----------------------------------------------------------------
      1. B(C   5,C   4)                  1.3905         0.623546   
      2. B(C   6,C   4)                  1.3904         0.623861   
      3. B(C   6,O   0)                  1.3588         0.627512   
      4. B(C   7,C   6)                  1.3856         0.634953   
      5. B(C   7,N   3)                  1.3520         0.643392   
      6. B(C   8,C   4)                  1.4949         0.424959   
      7. B(C   8,O   1)                  1.4212         0.498953   
      8. B(C   9,C   5)                  1.4894         0.433623   
      9. B(C   9,O   2)                  1.4229         0.495858   
     10. B(C  10,C   5)                  1.3856         0.635080   
     11. B(C  10,N   3)                  1.3520         0.643520   
     12. B(C  11,C   7)                  1.4937         0.426810   
     13. B(H  12,C   8)                  1.0960         0.352304   
     14. B(H  13,C   8)                  1.0943         0.354402   
     15. B(H  14,C   9)                  1.0963         0.351911   
     16. B(H  15,C   9)                  1.0936         0.355312   
     17. B(H  16,C  10)                  1.0857         0.365779   
     18. B(H  17,C  11)                  1.0947         0.353918   
     19. B(H  18,C  11)                  1.0957         0.352693   
     20. B(H  19,C  11)                  1.0948         0.353855   
     21. B(H  20,O   0)                  0.9696         0.501919   
     22. B(H  21,O   1)                  0.9724         0.496791   
     23. B(H  22,O   2)                  0.9723         0.497015   
     24. A(C   6,O   0,H  20)          111.3658         0.368640   
     25. A(C   8,O   1,H  21)          107.0761         0.353884   
     26. A(C   9,O   2,H  22)          108.5706         0.353538   
     27. A(C   7,N   3,C  10)          116.3612         0.434164   
     28. A(C   5,C   4,C   8)          120.2599         0.406200   
     29. A(C   6,C   4,C   8)          119.9989         0.406236   
     30. A(C   5,C   4,C   6)          119.7412         0.434998   
     31. A(C   4,C   5,C  10)          117.9014         0.436396   
     32. A(C   4,C   5,C   9)          122.0432         0.407652   
     33. A(C   9,C   5,C  10)          120.0553         0.408977   
     34. A(O   0,C   6,C   7)          121.0789         0.434017   
     35. A(C   4,C   6,C   7)          117.9059         0.436420   
     36. A(O   0,C   6,C   4)          121.0151         0.432643   
     37. A(N   3,C   7,C  11)          115.8555         0.406141   
     38. A(N   3,C   7,C   6)          124.0424         0.435974   
     39. A(C   6,C   7,C  11)          120.1021         0.407818   
     40. A(H  12,C   8,H  13)          105.6109         0.289118   
     41. A(C   4,C   8,H  13)          112.8921         0.330411   
     42. A(O   1,C   8,H  13)          109.5660         0.337283   
     43. A(C   4,C   8,H  12)          111.0628         0.330087   
     44. A(O   1,C   8,H  12)          108.3077         0.336949   
     45. A(O   1,C   8,C   4)          109.2609         0.388112   
     46. A(H  14,C   9,H  15)          105.8032         0.289184   
     47. A(C   5,C   9,H  15)          113.5755         0.331657   
     48. A(O   2,C   9,H  15)          109.4939         0.337078   
     49. A(C   5,C   9,H  14)          110.4959         0.331129   
     50. A(O   2,C   9,H  14)          107.8052         0.336538   
     51. A(O   2,C   9,C   5)          109.4681         0.389058   
     52. A(N   3,C  10,C   5)          124.0478         0.436005   
     53. A(C   5,C  10,H  16)          121.4483         0.355290   
     54. A(N   3,C  10,H  16)          114.5038         0.353889   
     55. A(H  17,C  11,H  18)          107.3375         0.289106   
     56. A(C   7,C  11,H  18)          110.6981         0.330384   
     57. A(C   7,C  11,H  17)          110.8013         0.330574   
     58. A(H  18,C  11,H  19)          107.3347         0.289098   
     59. A(H  17,C  11,H  19)          109.7588         0.289255   
     60. A(C   7,C  11,H  19)          110.7899         0.330564   
     61. D(C  10,C   5,C   4,C   6)     -0.0063         0.026923   
     62. D(C   9,C   5,C   4,C   8)      0.0844         0.026923   
     63. D(C   9,C   5,C   4,C   6)   -179.9784         0.026923   
     64. D(C  10,C   5,C   4,C   8)   -179.9435         0.026923   
     65. D(O   0,C   6,C   4,C   5)    179.9659         0.026952   
     66. D(C   4,C   6,O   0,H  20)   -179.9629         0.028941   
     67. D(C   7,C   6,C   4,C   5)      0.0051         0.026952   
     68. D(O   0,C   6,C   4,C   8)     -0.0967         0.026952   
     69. D(C   7,C   6,O   0,H  20)     -0.0032         0.028941   
     70. D(C   7,C   6,C   4,C   8)    179.9424         0.026952   
     71. D(N   3,C   7,C   6,C   4)     -0.0063         0.027982   
     72. D(N   3,C   7,C   6,O   0)   -179.9671         0.027982   
     73. D(C  11,C   7,N   3,C  10)    179.9866         0.030543   
     74. D(C  11,C   7,C   6,O   0)      0.0555         0.027982   
     75. D(C   6,C   7,N   3,C  10)      0.0084         0.030543   
     76. D(C  11,C   7,C   6,C   4)   -179.9837         0.027982   
     77. D(H  13,C   8,C   4,C   5)    -32.1833         0.013345   
     78. D(H  12,C   8,C   4,C   5)   -150.5845         0.013345   
     79. D(O   1,C   8,C   4,C   6)    -89.9372         0.013345   
     80. D(O   1,C   8,C   4,C   5)     89.9998         0.013345   
     81. D(H  12,C   8,O   1,H  21)     58.2699         0.019679   
     82. D(H  12,C   8,C   4,C   6)     29.4784         0.013345   
     83. D(C   4,C   8,O   1,H  21)    179.3752         0.019679   
     84. D(H  13,C   8,O   1,H  21)    -56.4647         0.019679   
     85. D(H  14,C   9,C   5,C   4)   -151.4550         0.013882   
     86. D(O   2,C   9,C   5,C  10)    -90.0060         0.013882   
     87. D(O   2,C   9,C   5,C   4)     89.9655         0.013882   
     88. D(H  15,C   9,O   2,H  22)    168.9094         0.019428   
     89. D(H  14,C   9,O   2,H  22)    -76.4377         0.019428   
     90. D(H  14,C   9,C   5,C  10)     28.5736         0.013882   
     91. D(C   5,C   9,O   2,H  22)     43.7998         0.019428   
     92. D(H  15,C   9,C   5,C   4)    -32.7476         0.013882   
     93. D(H  16,C  10,C   5,C   9)      0.1130         0.027994   
     94. D(H  16,C  10,C   5,C   4)   -179.8597         0.027994   
     95. D(N   3,C  10,C   5,C   9)    179.9816         0.027994   
     96. D(N   3,C  10,C   5,C   4)      0.0090         0.027994   
     97. D(H  16,C  10,N   3,C   7)    179.8671         0.030556   
     98. D(C   5,C  10,N   3,C   7)     -0.0098         0.030556   
     99. D(H  19,C  11,C   7,N   3)    118.9448         0.013458   
    100. D(H  18,C  11,C   7,C   6)    179.9676         0.013458   
    101. D(H  18,C  11,C   7,N   3)     -0.0115         0.013458   
    102. D(H  17,C  11,C   7,C   6)     61.0005         0.013458   
    103. D(H  17,C  11,C   7,N   3)   -118.9786         0.013458   
    -----------------------------------------------------------------

Number of atoms                         .... 23
Number of degrees of freedom            .... 103


         *************************************************************
         *                GEOMETRY OPTIMIZATION CYCLE   1            *
         *************************************************************
---------------------------------
CARTESIAN COORDINATES (ANGSTROEM)
---------------------------------
  O      1.638000    1.842100   -0.509100
  O     -1.394800    2.403400    0.909500
  O     -2.907100   -1.231500   -0.939700
  N      1.304200   -1.695700    0.314000
  C     -0.326000    0.536200   -0.104200
  C     -0.893800   -0.694500    0.206600
  C      1.055800    0.652300   -0.206100
  C      1.819700   -0.483300    0.010200
  C     -1.195000    1.732000   -0.327100
  C     -2.367000   -0.877000    0.328100
  C     -0.042700   -1.769800    0.404400
  C      3.308700   -0.414200   -0.086500
  H     -0.727900    2.433200   -1.028000
  H     -2.164300    1.477800   -0.766900
  H     -2.596800   -1.688000    1.029000
  H     -2.886800    0.005100    0.712500
  H     -0.424100   -2.756900    0.647300
  H      3.714200    0.285000    0.651800
  H      3.755600   -1.394600    0.112400
  H      3.619200   -0.112100   -1.091900
  H      2.603800    1.763900   -0.544600
  H     -1.953400    3.178100    0.726800
  H     -2.328400   -1.898000   -1.347400

----------------------------
CARTESIAN COORDINATES (A.U.)
----------------------------
  NO LB      ZA    FRAG     MASS         X           Y           Z
   0 O     8.0000    0    15.999    3.095371    3.481065   -0.962060
   1 O     8.0000    0    15.999   -2.635790    4.541768    1.718706
   2 O     8.0000    0    15.999   -5.493623   -2.327198   -1.775776
   3 N     7.0000    0    14.007    2.464581   -3.204409    0.593374
   4 C     6.0000    0    12.011   -0.616051    1.013271   -0.196909
   5 C     6.0000    0    12.011   -1.689037   -1.312415    0.390417
   6 C     6.0000    0    12.011    1.995173    1.232668   -0.389473
   7 C     6.0000    0    12.011    3.438735   -0.913305    0.019275
   8 C     6.0000    0    12.011   -2.258223    3.273006   -0.618129
   9 C     6.0000    0    12.011   -4.472982   -1.657290    0.620019
  10 C     6.0000    0    12.011   -0.080691   -3.344437    0.764205
  11 C     6.0000    0    12.011    6.252537   -0.782725   -0.163461
  12 H     1.0000    0     1.008   -1.375532    4.598082   -1.942638
  13 H     1.0000    0     1.008   -4.089934    2.792637   -1.449231
  14 H     1.0000    0     1.008   -4.907241   -3.189858    1.944528
  15 H     1.0000    0     1.008   -5.455261    0.009638    1.346430
  16 H     1.0000    0     1.008   -0.801433   -5.209786    1.223220
  17 H     1.0000    0     1.008    7.018821    0.538572    1.231723
  18 H     1.0000    0     1.008    7.097055   -2.635412    0.212405
  19 H     1.0000    0     1.008    6.839297   -0.211838   -2.063392
  20 H     1.0000    0     1.008    4.920469    3.333288   -1.029145
  21 H     1.0000    0     1.008   -3.691391    6.005739    1.373453
  22 H     1.0000    0     1.008   -4.400038   -3.586700   -2.546217

--------------------------------
INTERNAL COORDINATES (ANGSTROEM)
--------------------------------
 O      0   0   0     0.000000000000     0.00000000     0.00000000
 O      1   0   0     3.394901985330     0.00000000     0.00000000
 O      2   1   0     4.349608021420    89.70107005     0.00000000
 N      1   2   3     3.647594397682    89.10127760   318.29635218
 C      2   1   3     2.378309687572    44.81625525    16.05083847
 C      5   2   1     1.390545206025   114.58739834   161.27367563
 C      1   2   3     1.358819296301    70.66031738   326.58945179
 C      4   1   2     1.352016438510    17.18811573   203.35634377
 C      2   1   3     1.421223965461    55.43962573   329.95460342
 C      3   2   1     1.422917812103    44.03077471    95.83519428
 C      4   1   2     1.351962492083    99.17310226    23.33174426
 C      8   4   1     1.493735820016   115.85548887   180.01369164
 H      9   2   1     1.095958329500   108.30769034   297.74717981
 H      9   2   1     1.094341888991   109.56601933   183.01255225
 H     10   3   2     1.096261761624   107.80522238   164.97904632
 H     10   3   2     1.093643365088   109.49392115    50.32609574
 H     11   4   1     1.085740659642   114.50384966   179.85900208
 H     12   8   4     1.094713560709   110.80131707   241.02135386
 H     12   8   4     1.095657327817   110.69812554     0.00000000
 H     12   8   4     1.094761992398   110.78990434   118.94484524
 H      1   2   3     0.969610813677   156.70225829   227.31324443
 H      2   1   3     0.972405954322   124.49894127   242.29006600
 H      3   2   1     0.972283513179   122.96938949    13.00534621

---------------------------
INTERNAL COORDINATES (A.U.)
---------------------------
 O      0   0   0     0.000000000000     0.00000000     0.00000000
 O      1   0   0     6.415435003780     0.00000000     0.00000000
 O      2   1   0     8.219567950391    89.70107005     0.00000000
 N      1   2   3     6.892954459244    89.10127760   318.29635218
 C      2   1   3     4.494353971163    44.81625525    16.05083847
 C      5   2   1     2.627749616225   114.58739834   161.27367563
 C      1   2   3     2.567796335497    70.66031738   326.58945179
 C      4   1   2     2.554940797343    17.18811573   203.35634377
 C      2   1   3     2.685724069686    55.43962573   329.95460342
 C      3   2   1     2.688924975953    44.03077471    95.83519428
 C      4   1   2     2.554838853371    99.17310226    23.33174426
 C      8   4   1     2.822751616259   115.85548887   180.01369164
 H      9   2   1     2.071061096944   108.30769034   297.74717981
 H      9   2   1     2.068006467071   109.56601933   183.01255225
 H     10   3   2     2.071634500560   107.80522238   164.97904632
 H     10   3   2     2.066686448196   109.49392115    50.32609574
 H     11   4   1     2.051752499187   114.50384966   179.85900208
 H     12   8   4     2.068708824830   110.80131707   241.02135386
 H     12   8   4     2.070492286199   110.69812554     0.00000000
 H     12   8   4     2.068800347459   110.78990434   118.94484524
 H      1   2   3     1.832298894339   156.70225829   227.31324443
 H      2   1   3     1.837580944662   124.49894127   242.29006600
 H      3   2   1     1.837349564435   122.96938949    13.00534621

---------------------
BASIS SET INFORMATION
---------------------
There are 4 groups of distinct atoms

 Group   1 Type O   : 11s6p2d contracted to 5s3p2d pattern {62111/411/11}
 Group   2 Type N   : 11s6p1d contracted to 5s3p1d pattern {62111/411/1}
 Group   3 Type C   : 11s6p1d contracted to 5s3p1d pattern {62111/411/1}
 Group   4 Type H   : 5s contracted to 3s pattern {311}

Atom   0O    basis set group =>   1
Atom   1O    basis set group =>   1
Atom   2O    basis set group =>   1
Atom   3N    basis set group =>   2
Atom   4C    basis set group =>   3
Atom   5C    basis set group =>   3
Atom   6C    basis set group =>   3
Atom   7C    basis set group =>   3
Atom   8C    basis set group =>   3
Atom   9C    basis set group =>   3
Atom  10C    basis set group =>   3
Atom  11C    basis set group =>   3
Atom  12H    basis set group =>   4
Atom  13H    basis set group =>   4
Atom  14H    basis set group =>   4
Atom  15H    basis set group =>   4
Atom  16H    basis set group =>   4
Atom  17H    basis set group =>   4
Atom  18H    basis set group =>   4
Atom  19H    basis set group =>   4
Atom  20H    basis set group =>   4
Atom  21H    basis set group =>   4
Atom  22H    basis set group =>   4
---------------------------------
AUXILIARY/J BASIS SET INFORMATION
---------------------------------
There are 4 groups of distinct atoms

 Group   1 Type O   : 8s3p3d contracted to 6s3p3d pattern {311111/111/111}
 Group   2 Type N   : 8s3p3d contracted to 6s3p3d pattern {311111/111/111}
 Group   3 Type C   : 8s3p3d contracted to 6s3p3d pattern {311111/111/111}
 Group   4 Type H   : 5s2p contracted to 3s1p pattern {311/2}

Atom   0O    basis set group =>   1
Atom   1O    basis set group =>   1
Atom   2O    basis set group =>   1
Atom   3N    basis set group =>   2
Atom   4C    basis set group =>   3
Atom   5C    basis set group =>   3
Atom   6C    basis set group =>   3
Atom   7C    basis set group =>   3
Atom   8C    basis set group =>   3
Atom   9C    basis set group =>   3
Atom  10C    basis set group =>   3
Atom  11C    basis set group =>   3
Atom  12H    basis set group =>   4
Atom  13H    basis set group =>   4
Atom  14H    basis set group =>   4
Atom  15H    basis set group =>   4
Atom  16H    basis set group =>   4
Atom  17H    basis set group =>   4
Atom  18H    basis set group =>   4
Atom  19H    basis set group =>   4
Atom  20H    basis set group =>   4
Atom  21H    basis set group =>   4
Atom  22H    basis set group =>   4


           ************************************************************
           *        Program running with 16 parallel MPI-processes    *
           *              working on a common directory               *
           ************************************************************
------------------------------------------------------------------------------
                             ORCA STARTUP CALCULATIONS
                           -- RI-GTO INTEGRALS CHOSEN --
------------------------------------------------------------------------------
------------------------------------------------------------------------------
                   ___                                                        
                  /   \      - P O W E R E D   B Y -                         
                 /     \                                                     
                 |  |  |   _    _      __       _____    __    __             
                 |  |  |  | |  | |    /  \     |  _  \  |  |  /  |          
                  \  \/   | |  | |   /    \    | | | |  |  | /  /          
                 / \  \   | |__| |  /  /\  \   | |_| |  |  |/  /          
                |  |  |   |  __  | /  /__\  \  |    /   |      \           
                |  |  |   | |  | | |   __   |  |    \   |  |\   \          
                \     /   | |  | | |  |  |  |  | |\  \  |  | \   \       
                 \___/    |_|  |_| |__|  |__|  |_| \__\ |__|  \__/        
                                                                              
                      - O R C A' S   B I G   F R I E N D -                    
                                      &                                       
                       - I N T E G R A L  F E E D E R -                       
                                                                              
 v1 FN, 2020, v2 2021, v3 2022-2024                                           
------------------------------------------------------------------------------


----------------------
SHARK INTEGRAL PACKAGE
----------------------

Number of atoms                             ...     23
Number of basis functions                   ...    276
Number of shells                            ...    144
Maximum angular momentum                    ...      2
Integral batch strategy                     ... SHARK/LIBINT Hybrid
RI-J (if used) integral strategy            ... SPLIT-RIJ (Revised 2003 algorithm where possible)
Printlevel                                  ...      1
Contraction scheme used                     ... SEGMENTED contraction
Prescreening option                         ... SCHWARTZ
   Thresh                                   ... 2.500e-11
   Tcut                                     ... 2.500e-12
   Tpresel                                  ... 2.500e-12 
Coulomb Range Separation                    ... NOT USED
Exchange Range Separation                   ... NOT USED
Multipole approximations                    ... NOT USED
Finite Nucleus Model                        ... NOT USED
CABS basis                                  ... NOT available
Auxiliary Coulomb fitting basis             ... AVAILABLE
   # of basis functions in Aux-J            ...    426
   # of shells in Aux-J                     ...    188
   Maximum angular momentum in Aux-J        ...      2
Auxiliary J/K fitting basis                 ... NOT available
Auxiliary Correlation fitting basis         ... NOT available
Auxiliary 'external' fitting basis          ... NOT available

Checking pre-screening integrals            ... done (  0.0 sec) Dimension = 144
Check shell pair data                       ... done (  0.0 sec)
Shell pair information
Shell pair cut-off parameter TPreSel        ...   2.5e-12
Total number of shell pairs                 ...     10440
Shell pairs after pre-screening             ...      9032
Total number of primitive shell pairs       ...     37972
Primitive shell pairs kept                  ...     22386
          la=0 lb=0:   3544 shell pairs
          la=1 lb=0:   3030 shell pairs
          la=1 lb=1:    643 shell pairs
          la=2 lb=0:   1190 shell pairs
          la=2 lb=1:    513 shell pairs
          la=2 lb=2:    112 shell pairs

Calculating one electron integrals          ... done (  0.5 sec)
Calculating RI/J V-Matrix + Cholesky decomp.... done (  0.4 sec)
Calculating Nuclear repulsion               ... done (  0.0 sec) ENN=    722.719179804023 Eh

Diagonalization of the overlap matrix:
Smallest eigenvalue                        ... 2.402e-05
Time for diagonalization                   ...    0.307 sec
Threshold for overlap eigenvalues          ... 1.000e-07
Number of eigenvalues below threshold      ... 0
Time for construction of square roots      ...    0.003 sec
Total time needed                          ...    0.311 sec

-------------------
DFT GRID GENERATION
-------------------

General Integration Accuracy     IntAcc      ... 4.959
Radial Grid Type                 RadialGrid  ... OptM3 with GC (2021)
Angular Grid (max. ang.)         AngularGrid ... 6 (Lebedev-590)
Angular grid pruning method      GridPruning ... 4 (adaptive)
Weight generation scheme         WeightScheme... mBecke (2022)
Basis function cutoff            BFCut       ... 1.0000e-11
Integration weight cutoff        WCut        ... 1.0000e-14
Partially contracted basis set               ... off
Rotationally invariant grid construction     ... off
Angular grids for H and He will be reduced by one unit
Diffuse basis detected: some atoms will have their outermost
                        angular grid increased by 1.

Total number of grid points                  ...   267774
Total number of batches                      ...     4196
Average number of points per batch           ...       63
Average number of grid points per atom       ...    11642
Initializing property integral containers    ... done (  0.0 sec)

SHARK setup successfully completed in   5.9 seconds

Maximum memory used throughout the entire STARTUP-calculation: 57.7 MB


           ************************************************************
           *        Program running with 16 parallel MPI-processes    *
           *              working on a common directory               *
           ************************************************************
-------------------------------------------------------------------------------
                                 ORCA GUESS
                   Start orbitals & Density for SCF / CASSCF
-------------------------------------------------------------------------------

------------
SCF SETTINGS
------------
Hamiltonian:
 Density Functional     Method          .... DFT(GTOs)
 Exchange Functional    Exchange        .... B973C
 Correlation Functional Correlation     .... B973C
 Gradients option       PostSCFGGA      .... off
 RI-approximation to the Coulomb term is turned on
   Number of AuxJ basis functions       .... 426


General Settings:
 Integral files         IntName         .... m1_00_Vitamin_B6-B97-3C-TZ
 Hartree-Fock type      HFTyp           .... RHF
 Total Charge           Charge          ....    0
 Multiplicity           Mult            ....    1
 Number of Electrons    NEL             ....   90
 Basis Dimension        Dim             ....  276
 Nuclear Repulsion      ENuc            ....    722.7191798040 Eh

Convergence Acceleration:
 AO-DIIS                CNVDIIS         .... on
   Start iteration      DIISMaxIt       ....    12
   Startup error        DIISStart       ....  0.200000
   # of expansion vecs  DIISMaxEq       ....     5
   Bias factor          DIISBfac        ....   1.050
   Max. coefficient     DIISMaxC        ....  10.000
 MO-DIIS                CNVKDIIS        .... off
 Trust-Rad. Augm. Hess. CNVTRAH         .... off
 SOSCF                  CNVSOSCF        .... on
   Start iteration      SOSCFMaxIt      ....   150
   Startup grad/error   SOSCFStart      ....  0.003300
   Hessian update       SOSCFHessUp     .... L-BFGS
 Level Shifting         CNVShift        .... on
   Level shift para.    LevelShift      ....    0.2500
   Turn off err/grad.   ShiftErr        ....    0.0010
 Zerner damping         CNVZerner       .... off
 Static damping         CNVDamp         .... on
   Fraction old density DampFac         ....    0.7000
   Max. Damping (<1)    DampMax         ....    0.9800
   Min. Damping (>=0)   DampMin         ....    0.0000
   Turn off err/grad.   DampErr         ....    0.1000

SCF Procedure:
 Maximum # iterations   MaxIter         ....   800
 SCF integral mode      SCFMode         .... Direct
   Integral package                     .... SHARK and LIBINT hybrid scheme
 Reset frequency        DirectResetFreq ....    20
 Integral Threshold     Thresh          ....  2.500e-11 Eh
 Primitive CutOff       TCut            ....  2.500e-12 Eh

Convergence Tolerance:
 Convergence Check Mode ConvCheckMode   .... Total+1el-Energy
 Convergence forced     ConvForced      .... 0
 Energy Change          TolE            ....  1.000e-08 Eh
 1-El. energy change                    ....  1.000e-05 Eh
 Orbital Gradient       TolG            ....  1.000e-05
 Orbital Rotation angle TolX            ....  1.000e-05
 DIIS Error             TolErr          ....  5.000e-07

--------------------------------
INITIAL GUESS: MINIMAL BASIS EHT
--------------------------------
The minimal basis has 71 functions
EHT matrix was diagonalized
Basis set overlap was calculated now projecting the orbitals
Using GuessMode=FMatrix for the initial guess
C*T matrix was formed
Effective Fockian was calculated
Effective Fockian was diagonalized
Initial density was built
                      ------------------
                      INITIAL GUESS DONE
                      ------------------
             **** ENERGY FILE WAS UPDATED (m1_00_Vitamin_B6-B97-3C-TZ.en.tmp) ****
Finished Guess after   0.6 sec
Maximum memory used throughout the entire GUESS-calculation: 16.0 MB


           ************************************************************
           *        Program running with 16 parallel MPI-processes    *
           *              working on a common directory               *
           ************************************************************

-------------------------------------------------------------------------------------------
                                      ORCA LEAN-SCF
                              memory conserving SCF solver
-------------------------------------------------------------------------------------------

----------------------------------------D-I-I-S--------------------------------------------
Iteration    Energy (Eh)           Delta-E    RMSDP     MaxDP     DIISErr   Damp  Time(sec)
-------------------------------------------------------------------------------------------
               ***  Starting incremental Fock matrix formation  ***
    1    -589.5709901025153385     0.00e+00  9.07e-03  3.07e-01  4.70e-01  0.700   2.9
Warning: op=0 Small HOMO/LUMO gap (   0.091) - skipping pre-diagonalization
         Will do a full diagonalization
    2    -590.2673109511719076    -6.96e-01  9.86e-03  5.22e-01  3.32e-01  0.700   0.3
    3    -590.6343690437316809    -3.67e-01  4.31e-03  1.48e-01  2.31e-01  0.700   0.3
                               ***Turning on AO-DIIS***
    4    -590.8870162399094852    -2.53e-01  3.14e-03  2.02e-01  1.60e-01  0.700   0.3
    5    -591.0656765603015401    -1.79e-01  2.30e-03  1.51e-01  1.12e-01  0.700   0.3
    6    -591.1916113684866332    -1.26e-01  1.47e-03  7.67e-02  7.90e-02  0.700   0.3
    7    -591.2811895543342189    -8.96e-02  3.32e-03  9.14e-02  5.55e-02  0.000   0.3
    8    -591.4880422223599226    -2.07e-01  6.60e-04  4.30e-02  2.12e-02  0.000   0.3
                              *** Initializing SOSCF ***
---------------------------------------S-O-S-C-F--------------------------------------
Iteration    Energy (Eh)           Delta-E    RMSDP     MaxDP     MaxGrad    Time(sec)
--------------------------------------------------------------------------------------
    9    -591.4900808140749859    -2.04e-03  1.23e-04  5.30e-03  2.61e-03     0.3
               *** Restarting incremental Fock matrix formation ***
   10    -591.4901043639637237    -2.35e-05  1.15e-04  5.00e-03  2.29e-04     0.3
   11    -591.4900897762853447     1.46e-05  9.03e-05  3.70e-03  6.07e-04     0.2
   12    -591.4901101318431529    -2.04e-05  2.22e-05  4.94e-04  1.38e-04     0.2
   13    -591.4901086881603760     1.44e-06  1.81e-05  9.20e-04  2.79e-04     0.2
   14    -591.4901105024065373    -1.81e-06  1.40e-05  8.67e-04  3.03e-05     0.2
   15    -591.4901104320759941     7.03e-08  6.41e-06  3.26e-04  3.82e-05     0.2
   16    -591.4901105455511470    -1.13e-07  5.63e-06  3.13e-04  4.50e-06     0.2
   17    -591.4901105431093811     2.44e-09  2.93e-06  1.31e-04  7.43e-06     0.2
                 **** Energy Check signals convergence ****

               *****************************************************
               *                     SUCCESS                       *
               *           SCF CONVERGED AFTER  17 CYCLES          *
               *****************************************************

             **** ENERGY FILE WAS UPDATED (m1_00_Vitamin_B6-B97-3C-TZ.en.tmp) ****

----------------
TOTAL SCF ENERGY
----------------

Total Energy       :       -591.49011054310938 Eh          -16095.26418 eV

Components:
Nuclear Repulsion  :        722.71917980402316 Eh           19666.18869 eV
Electronic Energy  :      -1314.20929034713254 Eh          -35761.45287 eV
One Electron Energy:      -2240.33041637703082 Eh          -60962.48990 eV
Two Electron Energy:        926.12112602989828 Eh           25201.03704 eV

Virial components:
Potential Energy   :      -1180.80219337442963 Eh          -32131.26120 eV
Kinetic Energy     :        589.31208283132025 Eh           16035.99703 eV
Virial Ratio       :          2.00369588164784

DFT components:
N(Alpha)           :       44.999995373715 electrons
N(Beta)            :       44.999995373715 electrons
N(Total)           :       89.999990747431 electrons
E(XC)              :      -79.789112636797 Eh       

---------------
SCF CONVERGENCE
---------------

  Last Energy change         ...   -2.4418e-09  Tolerance :   1.0000e-08
  Last MAX-Density change    ...    1.3141e-04  Tolerance :   1.0000e-07
  Last RMS-Density change    ...    2.9303e-06  Tolerance :   5.0000e-09
  Last DIIS Error            ...    2.6145e-03  Tolerance :   5.0000e-07
  Last Orbital Gradient      ...    7.4257e-06  Tolerance :   1.0000e-05
  Last Orbital Rotation      ...    7.1558e-06  Tolerance :   1.0000e-05


----------------
ORBITAL ENERGIES
----------------

  NO   OCC          E(Eh)            E(eV) 
   0   2.0000     -18.792105      -511.3592 
   1   2.0000     -18.747192      -510.1370 
   2   2.0000     -18.745971      -510.1038 
   3   2.0000     -13.987875      -380.6294 
   4   2.0000      -9.962968      -271.1061 
   5   2.0000      -9.942041      -270.5367 
   6   2.0000      -9.941150      -270.5125 
   7   2.0000      -9.933239      -270.2972 
   8   2.0000      -9.921001      -269.9642 
   9   2.0000      -9.913525      -269.7607 
  10   2.0000      -9.907178      -269.5880 
  11   2.0000      -9.901275      -269.4274 
  12   2.0000      -0.998393       -27.1677 
  13   2.0000      -0.944872       -25.7113 
  14   2.0000      -0.942584       -25.6490 
  15   2.0000      -0.865890       -23.5621 
  16   2.0000      -0.757969       -20.6254 
  17   2.0000      -0.721293       -19.6274 
  18   2.0000      -0.675274       -18.3751 
  19   2.0000      -0.638377       -17.3711 
  20   2.0000      -0.610573       -16.6145 
  21   2.0000      -0.574913       -15.6442 
  22   2.0000      -0.543318       -14.7844 
  23   2.0000      -0.513116       -13.9626 
  24   2.0000      -0.474423       -12.9097 
  25   2.0000      -0.472901       -12.8683 
  26   2.0000      -0.452199       -12.3050 
  27   2.0000      -0.434131       -11.8133 
  28   2.0000      -0.411230       -11.1901 
  29   2.0000      -0.403758       -10.9868 
  30   2.0000      -0.389861       -10.6087 
  31   2.0000      -0.380453       -10.3527 
  32   2.0000      -0.366142        -9.9632 
  33   2.0000      -0.361380        -9.8336 
  34   2.0000      -0.355829        -9.6826 
  35   2.0000      -0.346363        -9.4250 
  36   2.0000      -0.334493        -9.1020 
  37   2.0000      -0.325949        -8.8695 
  38   2.0000      -0.302429        -8.2295 
  39   2.0000      -0.297034        -8.0827 
  40   2.0000      -0.249783        -6.7970 
  41   2.0000      -0.231507        -6.2996 
  42   2.0000      -0.225707        -6.1418 
  43   2.0000      -0.220170        -5.9911 
  44   2.0000      -0.211165        -5.7461 
  45   0.0000      -0.065617        -1.7855 
  46   0.0000      -0.036251        -0.9864 
  47   0.0000       0.000485         0.0132 
  48   0.0000       0.016795         0.4570 
  49   0.0000       0.024612         0.6697 
  50   0.0000       0.059621         1.6224 
  51   0.0000       0.064729         1.7614 
  52   0.0000       0.073918         2.0114 
  53   0.0000       0.079283         2.1574 
  54   0.0000       0.087116         2.3705 
  55   0.0000       0.093416         2.5420 
*Only the first 10 virtual orbitals were printed.

                    ********************************
                    * MULLIKEN POPULATION ANALYSIS *
                    ********************************

-----------------------
MULLIKEN ATOMIC CHARGES
-----------------------
   0 O :   -0.558359
   1 O :   -0.563440
   2 O :   -0.557385
   3 N :   -0.034672
   4 C :    0.065419
   5 C :    0.254735
   6 C :    0.385218
   7 C :   -0.046289
   8 C :   -0.437971
   9 C :   -0.404015
  10 C :   -0.186555
  11 C :   -0.727043
  12 H :    0.157450
  13 H :    0.213921
  14 H :    0.159267
  15 H :    0.220561
  16 H :    0.159860
  17 H :    0.191745
  18 H :    0.212308
  19 H :    0.189009
  20 H :    0.465475
  21 H :    0.421109
  22 H :    0.419652
Sum of atomic charges:    0.0000000

--------------------------------
MULLIKEN REDUCED ORBITAL CHARGES
--------------------------------
  0 O s       :     3.777715  s :     3.777715
      pz      :     1.818018  p :     4.719456
      px      :     1.383497
      py      :     1.517941
      dz2     :     0.009017  d :     0.061187
      dxz     :     0.009306
      dyz     :     0.010333
      dx2y2   :     0.022538
      dxy     :     0.009992

  1 O s       :     3.813567  s :     3.813567
      pz      :     1.495413  p :     4.720272
      px      :     1.749198
      py      :     1.475661
      dz2     :     0.008704  d :     0.029601
      dxz     :     0.001813
      dyz     :     0.004955
      dx2y2   :     0.004515
      dxy     :     0.009614

  2 O s       :     3.809313  s :     3.809313
      pz      :     1.371837  p :     4.716098
      px      :     1.710621
      py      :     1.633640
      dz2     :     0.004276  d :     0.031974
      dxz     :     0.007660
      dyz     :     0.002175
      dx2y2   :     0.005516
      dxy     :     0.012347

  3 N s       :     3.470007  s :     3.470007
      pz      :     1.124608  p :     3.519221
      px      :     1.127001
      py      :     1.267612
      dz2     :     0.005308  d :     0.045444
      dxz     :     0.006901
      dyz     :     0.006955
      dx2y2   :     0.017276
      dxy     :     0.009004

  4 C s       :     3.250379  s :     3.250379
      pz      :     0.968173  p :     2.637347
      px      :     0.847936
      py      :     0.821237
      dz2     :     0.003925  d :     0.046855
      dxz     :     0.006417
      dyz     :     0.005739
      dx2y2   :     0.016752
      dxy     :     0.014022

  5 C s       :     2.988530  s :     2.988530
      pz      :     0.975921  p :     2.708451
      px      :     0.788547
      py      :     0.943983
      dz2     :     0.004074  d :     0.048285
      dxz     :     0.005609
      dyz     :     0.006948
      dx2y2   :     0.015096
      dxy     :     0.016558

  6 C s       :     2.958408  s :     2.958408
      pz      :     0.955695  p :     2.583889
      px      :     0.867635
      py      :     0.760558
      dz2     :     0.006052  d :     0.072485
      dxz     :     0.008985
      dyz     :     0.013879
      dx2y2   :     0.021925
      dxy     :     0.021644

  7 C s       :     3.197706  s :     3.197706
      pz      :     0.991860  p :     2.786899
      px      :     0.850213
      py      :     0.944825
      dz2     :     0.004464  d :     0.061684
      dxz     :     0.007002
      dyz     :     0.008881
      dx2y2   :     0.021267
      dxy     :     0.020071

  8 C s       :     3.407230  s :     3.407230
      pz      :     0.850381  p :     2.964922
      px      :     1.117427
      py      :     0.997114
      dz2     :     0.012553  d :     0.065819
      dxz     :     0.015826
      dyz     :     0.017381
      dx2y2   :     0.008530
      dxy     :     0.011529

  9 C s       :     3.372566  s :     3.372566
      pz      :     0.818885  p :     2.965398
      px      :     0.970957
      py      :     1.175556
      dz2     :     0.015268  d :     0.066051
      dxz     :     0.013241
      dyz     :     0.017226
      dx2y2   :     0.011252
      dxy     :     0.009064

 10 C s       :     3.189376  s :     3.189376
      pz      :     1.000734  p :     2.941549
      px      :     0.939585
      py      :     1.001230
      dz2     :     0.004043  d :     0.055630
      dxz     :     0.009122
      dyz     :     0.003652
      dx2y2   :     0.017979
      dxy     :     0.020835

 11 C s       :     3.402347  s :     3.402347
      pz      :     1.080250  p :     3.287504
      px      :     0.980820
      py      :     1.226434
      dz2     :     0.007975  d :     0.037192
      dxz     :     0.006636
      dyz     :     0.006745
      dx2y2   :     0.008775
      dxy     :     0.007061

 12 H s       :     0.842550  s :     0.842550

 13 H s       :     0.786079  s :     0.786079

 14 H s       :     0.840733  s :     0.840733

 15 H s       :     0.779439  s :     0.779439

 16 H s       :     0.840140  s :     0.840140

 17 H s       :     0.808255  s :     0.808255

 18 H s       :     0.787692  s :     0.787692

 19 H s       :     0.810991  s :     0.810991

 20 H s       :     0.534525  s :     0.534525

 21 H s       :     0.578891  s :     0.578891

 22 H s       :     0.580348  s :     0.580348



                     *******************************
                     * LOEWDIN POPULATION ANALYSIS *
                     *******************************

----------------------
LOEWDIN ATOMIC CHARGES
----------------------
   0 O :   -0.626232
   1 O :   -0.733875
   2 O :   -0.735478
   3 N :   -0.167273
   4 C :    0.026609
   5 C :   -0.044573
   6 C :    0.196525
   7 C :    0.010001
   8 C :    0.042280
   9 C :    0.023420
  10 C :   -0.083609
  11 C :   -0.409776
  12 H :    0.182414
  13 H :    0.178756
  14 H :    0.171200
  15 H :    0.192861
  16 H :    0.160778
  17 H :    0.168208
  18 H :    0.180948
  19 H :    0.167211
  20 H :    0.378629
  21 H :    0.360906
  22 H :    0.360070

-------------------------------
LOEWDIN REDUCED ORBITAL CHARGES
-------------------------------
  0 O s       :     3.514599  s :     3.514599
      pz      :     1.806054  p :     4.782752
      px      :     1.395723
      py      :     1.580975
      dz2     :     0.042274  d :     0.328881
      dxz     :     0.036573
      dyz     :     0.063080
      dx2y2   :     0.107102
      dxy     :     0.079853

  1 O s       :     3.569007  s :     3.569007
      pz      :     1.583561  p :     4.850921
      px      :     1.753001
      py      :     1.514360
      dz2     :     0.095634  d :     0.313946
      dxz     :     0.065927
      dyz     :     0.071928
      dx2y2   :     0.025069
      dxy     :     0.055388

  2 O s       :     3.567301  s :     3.567301
      pz      :     1.484949  p :     4.855505
      px      :     1.699138
      py      :     1.671418
      dz2     :     0.088480  d :     0.312673
      dxz     :     0.070171
      dyz     :     0.086309
      dx2y2   :     0.036140
      dxy     :     0.031573

  3 N s       :     3.246689  s :     3.246689
      pz      :     1.138700  p :     3.836825
      px      :     1.302600
      py      :     1.395525
      dz2     :     0.009861  d :     0.083760
      dxz     :     0.012385
      dyz     :     0.010792
      dx2y2   :     0.032167
      dxy     :     0.018554

  4 C s       :     2.829762  s :     2.829762
      pz      :     0.961544  p :     3.048719
      px      :     1.037668
      py      :     1.049508
      dz2     :     0.007324  d :     0.094910
      dxz     :     0.011729
      dyz     :     0.010433
      dx2y2   :     0.034911
      dxy     :     0.030512

  5 C s       :     2.848013  s :     2.848013
      pz      :     0.963463  p :     3.096521
      px      :     1.050171
      py      :     1.082887
      dz2     :     0.007944  d :     0.100040
      dxz     :     0.010222
      dyz     :     0.013351
      dx2y2   :     0.032803
      dxy     :     0.035719

  6 C s       :     2.772245  s :     2.772245
      pz      :     0.920037  p :     2.871052
      px      :     1.028920
      py      :     0.922094
      dz2     :     0.013739  d :     0.160179
      dxz     :     0.017182
      dyz     :     0.027755
      dx2y2   :     0.051623
      dxy     :     0.049880

  7 C s       :     2.831235  s :     2.831235
      pz      :     0.963912  p :     3.028237
      px      :     1.046728
      py      :     1.017597
      dz2     :     0.009378  d :     0.130528
      dxz     :     0.012185
      dyz     :     0.016983
      dx2y2   :     0.050432
      dxy     :     0.041550

  8 C s       :     2.853249  s :     2.853249
      pz      :     0.918815  p :     2.975788
      px      :     1.059990
      py      :     0.996982
      dz2     :     0.028117  d :     0.128683
      dxz     :     0.029126
      dyz     :     0.035448
      dx2y2   :     0.014259
      dxy     :     0.021734

  9 C s       :     2.857128  s :     2.857128
      pz      :     0.906327  p :     2.990459
      px      :     1.004987
      py      :     1.079145
      dz2     :     0.032681  d :     0.128993
      dxz     :     0.027341
      dyz     :     0.032294
      dx2y2   :     0.021708
      dxy     :     0.014969

 10 C s       :     2.888119  s :     2.888119
      pz      :     0.984113  p :     3.082464
      px      :     1.021308
      py      :     1.077043
      dz2     :     0.008047  d :     0.113026
      dxz     :     0.016479
      dyz     :     0.005793
      dx2y2   :     0.039147
      dxy     :     0.043560

 11 C s       :     2.980052  s :     2.980052
      pz      :     1.129276  p :     3.368899
      px      :     1.073728
      py      :     1.165895
      dz2     :     0.012358  d :     0.060825
      dxz     :     0.011590
      dyz     :     0.009687
      dx2y2   :     0.015305
      dxy     :     0.011886

 12 H s       :     0.817586  s :     0.817586

 13 H s       :     0.821244  s :     0.821244

 14 H s       :     0.828800  s :     0.828800

 15 H s       :     0.807139  s :     0.807139

 16 H s       :     0.839222  s :     0.839222

 17 H s       :     0.831792  s :     0.831792

 18 H s       :     0.819052  s :     0.819052

 19 H s       :     0.832789  s :     0.832789

 20 H s       :     0.621371  s :     0.621371

 21 H s       :     0.639094  s :     0.639094

 22 H s       :     0.639930  s :     0.639930



                      *****************************
                      * MAYER POPULATION ANALYSIS *
                      *****************************

  NA   - Mulliken gross atomic population
  ZA   - Total nuclear charge
  QA   - Mulliken gross atomic charge
  VA   - Mayer's total valence
  BVA  - Mayer's bonded valence
  FA   - Mayer's free valence

  ATOM       NA         ZA         QA         VA         BVA        FA
  0 O      8.5584     8.0000    -0.5584     1.9890     1.9890    -0.0000
  1 O      8.5634     8.0000    -0.5634     1.7732     1.7732    -0.0000
  2 O      8.5574     8.0000    -0.5574     1.7575     1.7575    -0.0000
  3 N      7.0347     7.0000    -0.0347     3.2143     3.2143     0.0000
  4 C      5.9346     6.0000     0.0654     3.7008     3.7008    -0.0000
  5 C      5.7453     6.0000     0.2547     3.2051     3.2051     0.0000
  6 C      5.6148     6.0000     0.3852     3.7600     3.7600     0.0000
  7 C      6.0463     6.0000    -0.0463     3.6442     3.6442     0.0000
  8 C      6.4380     6.0000    -0.4380     3.7898     3.7898    -0.0000
  9 C      6.4040     6.0000    -0.4040     3.8057     3.8057     0.0000
 10 C      6.1866     6.0000    -0.1866     3.9043     3.9043     0.0000
 11 C      6.7270     6.0000    -0.7270     3.6310     3.6310    -0.0000
 12 H      0.8426     1.0000     0.1574     0.9423     0.9423    -0.0000
 13 H      0.7861     1.0000     0.2139     0.9063     0.9063    -0.0000
 14 H      0.8407     1.0000     0.1593     0.9227     0.9227     0.0000
 15 H      0.7794     1.0000     0.2206     0.9210     0.9210     0.0000
 16 H      0.8401     1.0000     0.1599     0.9482     0.9482    -0.0000
 17 H      0.8083     1.0000     0.1917     0.9328     0.9328    -0.0000
 18 H      0.7877     1.0000     0.2123     0.9663     0.9663    -0.0000
 19 H      0.8110     1.0000     0.1890     0.9325     0.9325    -0.0000
 20 H      0.5345     1.0000     0.4655     0.7558     0.7558    -0.0000
 21 H      0.5789     1.0000     0.4211     0.7932     0.7932     0.0000
 22 H      0.5803     1.0000     0.4197     0.8048     0.8048     0.0000

  Mayer bond orders larger than 0.100000
B(  0-O ,  6-C ) :   1.0700 B(  0-O , 20-H ) :   0.7183 B(  1-O ,  4-C ) :  -0.1015 
B(  1-O ,  8-C ) :   1.0535 B(  1-O , 21-H ) :   0.7749 B(  2-O ,  5-C ) :  -0.1266 
B(  2-O ,  9-C ) :   1.0321 B(  2-O , 22-H ) :   0.7726 B(  3-N ,  7-C ) :   1.6255 
B(  3-N , 10-C ) :   1.5206 B(  4-C ,  5-C ) :   1.3151 B(  4-C ,  6-C ) :   1.4572 
B(  4-C ,  8-C ) :   0.8042 B(  5-C ,  9-C ) :   0.7814 B(  5-C , 10-C ) :   1.3341 
B(  6-C ,  7-C ) :   1.2076 B(  7-C , 11-C ) :   0.7839 B(  8-C , 12-H ) :   0.9467 
B(  8-C , 13-H ) :   0.9383 B(  9-C , 14-H ) :   0.9553 B(  9-C , 15-H ) :   0.9513 
B( 10-C , 16-H ) :   0.9451 B( 11-C , 17-H ) :   0.9616 B( 11-C , 18-H ) :   0.9490 
B( 11-C , 19-H ) :   0.9652 


------------------
HIRSHFELD ANALYSIS
------------------

Total integrated alpha density =     44.999995374
Total integrated beta density  =     44.999995374

  ATOM     CHARGE      SPIN    
   0 O   -0.178915    0.000000
   1 O   -0.242538    0.000000
   2 O   -0.245715    0.000000
   3 N   -0.189323    0.000000
   4 C    0.000370    0.000000
   5 C   -0.009917    0.000000
   6 C    0.074075    0.000000
   7 C    0.043158    0.000000
   8 C    0.030274    0.000000
   9 C    0.036477    0.000000
  10 C    0.006499    0.000000
  11 C   -0.077731    0.000000
  12 H    0.023788    0.000000
  13 H    0.027055    0.000000
  14 H    0.024838    0.000000
  15 H    0.043410    0.000000
  16 H    0.037069    0.000000
  17 H    0.035237    0.000000
  18 H    0.047027    0.000000
  19 H    0.034130    0.000000
  20 H    0.169161    0.000000
  21 H    0.159355    0.000000
  22 H    0.152227    0.000000

  TOTAL   0.000009    0.000000

-------------------------
CHELPG CHARGES GENERATION
-------------------------
Grid spacing                       ...     0.300000
Point Cut-Off                      ...     2.800000
Van-der-Waals Radii                ...        COSMO
Total charge                       ...            0
Dipole moment constraint           ...        FALSE


Number of points X direction       ...           40
Number of points Y direction       ...           38
Number of points Z direction       ...           26
Maximum number of possible points  ...        39520
Final number of points             ...        13646


Grid generated                     ...   0.0 sec
Potential calculated               ...   0.2 sec
RespFile stored                    ... ok
Charges calculated                 ...   0.0 sec
CHELPG Charges            
--------------------------------
  0   O   :      -0.452397
  1   O   :      -0.550967
  2   O   :      -0.626472
  3   N   :      -0.670912
  4   C   :       0.243998
  5   C   :      -0.472344
  6   C   :      -0.093608
  7   C   :       0.631156
  8   C   :       0.076365
  9   C   :       0.369423
 10   C   :       0.315941
 11   C   :      -0.527453
 12   H   :       0.050975
 13   H   :       0.050021
 14   H   :      -0.024858
 15   H   :       0.064460
 16   H   :       0.072293
 17   H   :       0.131617
 18   H   :       0.168939
 19   H   :       0.110494
 20   H   :       0.383569
 21   H   :       0.372186
 22   H   :       0.377573
--------------------------------
Total charge:    -0.000000
--------------------------------

CHELPG charges calculated...

Timings:
Grid generation                 ...        0.003 sec (=   0.000 min)
Potential calculation           ...        0.210 sec (=   0.004 min)
Fit to the potential            ...        0.042 sec (=   0.001 min)
------------------------------------------------------------------------------

-------
TIMINGS
-------

Total SCF time: 0 days 0 hours 0 min 8 sec 

Total time                  ....       8.387 sec
Sum of individual times     ....       8.168 sec  ( 97.4%)

SCF preparation             ....       0.374 sec  (  4.5%)
Fock matrix formation       ....       6.460 sec  ( 77.0%)
  Startup                   ....       0.015 sec  (  0.2% of F)
  Split-RI-J                ....       1.779 sec  ( 27.5% of F)
  XC integration            ....       4.406 sec  ( 68.2% of F)
    XC Preparation          ....       0.000 sec  (  0.0% of XC)
    Basis function eval.    ....       0.800 sec  ( 18.2% of XC)
    Density eval.           ....       0.743 sec  ( 16.9% of XC)
    XC-Functional eval.     ....       0.197 sec  (  4.5% of XC)
    XC-Potential eval.      ....       0.674 sec  ( 15.3% of XC)
Diagonalization             ....       0.000 sec  (  0.0%)
Density matrix formation    ....       0.048 sec  (  0.6%)
Total Energy calculation    ....       0.023 sec  (  0.3%)
Population analysis         ....       0.703 sec  (  8.4%)
Orbital Transformation      ....       0.036 sec  (  0.4%)
Orbital Orthonormalization  ....       0.000 sec  (  0.0%)
DIIS solution               ....       0.416 sec  (  5.0%)
SOSCF solution              ....       0.107 sec  (  1.3%)
Finished LeanSCF after   8.5 sec

Maximum memory used throughout the entire LEANSCF-calculation: 43.1 MB


           ************************************************************
           *        Program running with 16 parallel MPI-processes    *
           *              working on a common directory               *
           ************************************************************

------------------------------------------------------------------------------
                         ORCA PROPERTY INTEGRAL CALCULATIONS
------------------------------------------------------------------------------

GBWName                                   ... m1_00_Vitamin_B6-B97-3C-TZ.gbw
Number of atoms                           ...     23
Number of basis functions                 ...    276
Max core memory                           ...   6000 MB

Dipole integrals                          ... YES
Quadrupole integrals                      ...  NO
Linear momentum integrals                 ...  NO
Angular momentum integrals                ...  NO
Higher moments length integrals           ...  NO
Higher moments velocity integrals         ...  NO
Kinetic energy integrals                  ...  NO
GIAO right hand sides                     ...  NO
GIAO dipole derivative integrals          ...  NO
SOC integrals                             ...  NO
EPR diamagnetic integrals (GIAO)          ...  NO
EPR gauge integrals                       ...  NO
Field gradient integrals                  ...  NO (   0 nuclei)
Spin-dipole/Fermi contact integrals       ...  NO (   0 nuclei)
Contact density integrals                 ...  NO (   0 nuclei)
Nucleus-orbit integrals                   ...  NO (   0 nuclei)
Geometric perturbations                   ...  NO (  23 nuclei)

Choice of electric origin   ... Center of mass
Position of electric origin ... ( -0.0827,  0.1110, -0.0271) 
Choice of magnetic origin   ... GIAO
Position of magnetic origin ... (  0.0000,  0.0000,  0.0000) 

Calculating integrals                     ... Electric Dipole (Length)     done (  0.1 sec)

Property integrals calculated in   0.1 sec

Maximum memory used throughout the entire PROPINT-calculation: 16.6 MB


-------------------------------------------------------------------------------
                          DFT DISPERSION CORRECTION                            
                                                                               
                              DFTD3 V3.1  Rev 1                                
                          USING Becke-Johnson damping                          
-------------------------------------------------------------------------------
The B97-3c composite method is recognized
Using three-body term ABC
Active option DFTDOPT                   ...         4   

molecular C6(AA) [au] = 5021.283837 


            DFT-D V3
 parameters
 s6 scaling factor         :     1.0000 
 a1 scaling factor         :     0.3700 
 s8 scaling factor         :     1.5000 
 a2 scaling factor         :     4.1000 
 Damping factor alpha9(ATM):    16.0000 
 ad hoc parameters k1-k3   :    16.0000     1.3333    -4.0000 

 Edisp/kcal,au: -34.214380257710  -0.054524079751 
 E6   /kcal   : -17.429810774 
 E8   /kcal   : -16.830311802 
 E6(ABC)      :   0.045742318 
 % E8         :  49.190754515 
 % E6(ABC)    :  -0.133693254 

-------------------------   ----------------
Dispersion correction           -0.054524080
-------------------------   ----------------

------------------   -----------------
SRB correction            -0.067220583
------------------   -----------------

-------------------------   --------------------
FINAL SINGLE POINT ENERGY      -591.611855205860
-------------------------   --------------------



           ************************************************************
           *        Program running with 16 parallel MPI-processes    *
           *              working on a common directory               *
           ************************************************************
------------------------------------------------------------------------------
                         ORCA SCF GRADIENT CALCULATION
------------------------------------------------------------------------------

Nuc. rep. gradient        (SHARK) ... done (  0.0 sec)
HCore & Overlap gradient  (SHARK) ... done (  0.1 sec)
Split-RIJ-J gradient      (SHARK) ... done (  0.9 sec)
XC gradient                       ... done (  1.6 sec)
Dispersion correction             ... done (  0.3 sec)

-------------------
DISPERSION GRADIENT
-------------------

   1   O   :    0.000436530    0.000775221   -0.000237854
   2   O   :   -0.000333356    0.000837230    0.000384878
   3   O   :   -0.000756263   -0.000385491   -0.000392880
   4   N   :    0.000276259   -0.000989657    0.000232144
   5   C   :   -0.000032739    0.000582156   -0.000119961
   6   C   :   -0.000410806   -0.000631988    0.000231933
   7   C   :    0.000509741    0.000507703   -0.000188212
   8   C   :    0.000770215   -0.000272953    0.000023572
   9   C   :   -0.000399579    0.001019984   -0.000188889
  10   C   :   -0.000953489   -0.000500975    0.000164194
  11   C   :    0.000246904   -0.001056851    0.000364608
  12   C   :    0.000912107   -0.000181834   -0.000008766
  13   H   :   -0.000166489    0.000419788   -0.000265887
  14   H   :   -0.000302264    0.000442057   -0.000252880
  15   H   :   -0.000403853   -0.000190668    0.000247517
  16   H   :   -0.000563035   -0.000090837    0.000240502
  17   H   :    0.000082314   -0.000560138    0.000179775
  18   H   :    0.000479186    0.000032520    0.000178891
  19   H   :    0.000394143   -0.000171672    0.000017700
  20   H   :    0.000457073   -0.000059156   -0.000223750
  21   H   :    0.000278151    0.000415194   -0.000110448
  22   H   :   -0.000159952    0.000357698    0.000150571
  23   H   :   -0.000360799   -0.000297333   -0.000426760

Difference to translation invariance:
           :    0.0000000000   -0.0000000000    0.0000000000

Difference to rotation invariance:
           :    0.0000000000   -0.0000000000   -0.0000000000

Norm of the Dispersion gradient    ...    0.0037094967
RMS gradient                       ...    0.0004465709
MAX gradient                       ...    0.0010568515
SRB correction                   ... done

------------------
CARTESIAN GRADIENT
------------------

   1   O   :    0.002915726   -0.006713155    0.001494280
   2   O   :    0.005839069   -0.007358863   -0.009913364
   3   O   :    0.007986023   -0.001753758    0.011681538
   4   N   :    0.017051404   -0.018454680    0.004657065
   5   C   :    0.008011227   -0.014308208    0.007661100
   6   C   :   -0.007893641   -0.002055169   -0.011649634
   7   C   :    0.002134197    0.006851317   -0.002115035
   8   C   :   -0.011532070    0.027921878   -0.005833325
   9   C   :    0.002566269   -0.012479158    0.010538996
  10   C   :    0.000401685    0.013444166   -0.002509302
  11   C   :   -0.017840376    0.004246002    0.000514159
  12   C   :   -0.003465062    0.003902054   -0.000990727
  13   H   :   -0.003339051    0.005127138    0.000947677
  14   H   :   -0.003419362    0.006586018    0.000106879
  15   H   :   -0.004079004   -0.001618748   -0.003222618
  16   H   :   -0.002703016    0.002114380    0.007063117
  17   H   :    0.001900315   -0.001782959   -0.000952555
  18   H   :   -0.002252891   -0.000317122    0.002964920
  19   H   :    0.005000725   -0.005636067    0.001041813
  20   H   :   -0.002524693   -0.001543016   -0.002232265
  21   H   :    0.006909683    0.003727147   -0.001311314
  22   H   :   -0.005047680    0.006066007   -0.002206390
  23   H   :    0.003380521   -0.005965208   -0.005735018

Difference to translation invariance:
           :   -0.0000000000   -0.0000000000   -0.0000000000

Difference to rotation invariance:
           :   -0.0000210377   -0.0000041523   -0.0000095525

Norm of the Cartesian gradient     ...    0.0628081731
RMS gradient                       ...    0.0075612155
MAX gradient                       ...    0.0279218784

-------
TIMINGS
-------

Total SCF gradient time     ....        3.005 sec

Densities                   ....       0.001 sec  (  0.0%)
One electron gradient       ....       0.116 sec  (  3.9%)
RI-J Coulomb gradient       ....       0.898 sec  ( 29.9%)
XC gradient                 ....       1.556 sec  ( 51.8%)

Maximum memory used throughout the entire SCFGRAD-calculation: 51.3 MB
------------------------------------------------------------------------------
                         ORCA GEOMETRY RELAXATION STEP
------------------------------------------------------------------------------

Reading the OPT-File                    .... done
Getting information on internals        .... done
Copying old internal coords+grads       .... done
Making the new internal coordinates     .... (2022 redundants) done
Validating the new internal coordinates .... (2022 redundants) done
Calculating the B-matrix                .... done
Calculating the G,G- and P matrices     .... done
Transforming gradient to internals      .... done
Projecting the internal gradient        .... done
Number of atoms                         ....  23
Number of internal coordinates          .... 103
Current Energy                          ....  -591.611855206 Eh
Current gradient norm                   ....     0.062808173 Eh/bohr
Maximum allowed component of the step   ....  0.300
Current trust radius                    ....  0.300
Evaluating the initial hessian          ....  (Almloef) done
Projecting the Hessian                  .... done
Forming the augmented Hessian           .... done
Diagonalizing the augmented Hessian     .... done
Last element of RFO vector              ....  0.978544476
Lowest eigenvalues of augmented Hessian:
 -0.006999836  0.013408255  0.013458570  0.014221660  0.019428501
Length of the computed step             ....  0.210553227
The final length of the internal step   ....  0.210553227
Converting the step to Cartesian space:
 Initial RMS(Int)=    0.0207464259
Transforming coordinates:
 Iter   0:  RMS(Cart)=    0.0462706529 RMS(Int)=    1.6359491697
 Iter   5:  RMS(Cart)=    0.0000000441 RMS(Int)=    0.0000000248
done
Storing new coordinates                 .... done

                                .--------------------.
          ----------------------|Geometry convergence|-------------------------
          Item                value                   Tolerance       Converged
          ---------------------------------------------------------------------
          RMS gradient        0.0049783236            0.0000300000      NO
          MAX gradient        0.0148801715            0.0001000000      NO
          RMS step            0.0207464259            0.0020000000      NO
          MAX step            0.0938044107            0.0040000000      NO
          ........................................................
          Max(Bonds)      0.0123      Max(Angles)    2.24
          Max(Dihed)        5.37      Max(Improp)    0.00
          ---------------------------------------------------------------------

The optimization has not yet converged - more geometry cycles are needed


    ---------------------------------------------------------------------------
                         Redundant Internal Coordinates
                            (Angstroem and degrees)

        Definition                    Value    dE/dq     Step     New-Value
    ----------------------------------------------------------------------------
     1. B(C   5,C   4)                1.3905 -0.003443  0.0031    1.3937   
     2. B(C   6,C   4)                1.3904  0.000993 -0.0004    1.3900   
     3. B(C   6,O   0)                1.3588  0.001554 -0.0013    1.3575   
     4. B(C   7,C   6)                1.3856 -0.013104  0.0110    1.3966   
     5. B(C   7,N   3)                1.3520  0.014880 -0.0123    1.3397   
[...]
     34       0.000004  -0.000000   0.000178
     35       0.000024   0.000000  -0.000023
     36       0.000084   0.000436   0.000308
     37       0.000071   0.003368   0.001639
     38      -0.000022   0.000966  -0.001017
     39       0.000351  -0.002537  -0.000050
     40      -0.000184   0.000579   0.000145
     41       0.000007   0.001355  -0.000126
     42       0.001603  -0.000065   0.000088
     43       0.000431   0.000360  -0.000124
     44       0.002309  -0.000105   0.000056
     45      -0.007623  -0.000203  -0.000126
     46       0.013444  -0.000184   0.000109
     47       0.005758   0.000184   0.000016
     48      -0.000194  -0.000065   0.000024
     49      -0.000140  -0.000007   0.000209
     50       0.000545   0.000067  -0.000020
     51       0.000089  -0.000050   0.003583
     52       0.000036  -0.000006   0.000592
     53      -0.000010  -0.000075   0.005469
     54       0.000024  -0.000057   0.001486
     55      -0.000052   0.000039  -0.000387
     56       0.000018  -0.000007   0.000057
     57       0.000033  -0.000018   0.002811
     58       0.000037   0.000036  -0.002289
     59      -0.000088   0.000056  -0.005219
     60       0.002895   0.016750  -0.995113
     61      -0.000196  -0.001040   0.071702
     62      -0.000024  -0.000365   0.019172
     63       0.003811  -0.556927  -0.009355
     64      -0.005450   0.811882   0.013680
     65       0.001099  -0.162547  -0.002667
     66      -0.466144  -0.003089  -0.001216
     67       0.690469   0.004669   0.002117
     68       0.549290   0.003724   0.001761


-----------
IR SPECTRUM
-----------

 Mode   freq       eps      Int      T**2         TX        TY        TZ
       cm**-1   L/(mol*cm) km/mol    a.u.
----------------------------------------------------------------------------
  6:     50.11   0.000006    0.03  0.000037  ( 0.001114  0.000225  0.005937)
  7:     76.99   0.000478    2.42  0.001939  ( 0.030616  0.027111  0.016336)
  8:     89.43   0.000101    0.51  0.000352  ( 0.004230 -0.016066 -0.008727)
  9:    112.83   0.001233    6.23  0.003410  ( 0.021624  0.036193  0.040410)
 10:    172.01   0.000704    3.56  0.001278  (-0.001199  0.019644  0.029843)
 11:    181.51   0.000088    0.44  0.000151  ( 0.003138  0.007355 -0.009317)
 12:    221.32   0.017519   88.54  0.024702  (-0.125574 -0.094500 -0.001852)
 13:    242.35   0.000782    3.95  0.001007  (-0.013593  0.019957  0.020587)
 14:    285.58   0.008653   43.73  0.009456  (-0.069887 -0.065408  0.017133)
 15:    300.67   0.000656    3.31  0.000681  (-0.014789 -0.021456 -0.001255)
 16:    325.27   0.013205   66.73  0.012669  ( 0.052395  0.077012  0.063187)
 17:    336.16   0.001921    9.71  0.001784  ( 0.017272 -0.001102 -0.038525)
 18:    343.05   0.010335   52.23  0.009402  ( 0.041919  0.023605 -0.084186)
 19:    369.01   0.008761   44.28  0.007409  ( 0.069290  0.047252 -0.019377)
 20:    402.77   0.001341    6.78  0.001039  (-0.007255 -0.000794 -0.031394)
 21:    505.88   0.000564    2.85  0.000348  (-0.007731  0.015584  0.006751)
 22:    521.11   0.004383   22.15  0.002625  (-0.020929 -0.046627  0.003580)
 23:    543.31   0.001003    5.07  0.000576  (-0.004634  0.009441  0.021577)
 24:    610.49   0.000809    4.09  0.000413  (-0.008932  0.017722 -0.004427)
 25:    634.35   0.000769    3.89  0.000378  (-0.008775  0.015219 -0.008342)
 26:    680.92   0.002629   13.29  0.001205  (-0.028649  0.007288  0.018196)
 27:    764.78   0.000185    0.93  0.000075  (-0.007188 -0.003102  0.003748)
 28:    788.21   0.003557   17.97  0.001408  ( 0.029406 -0.009173 -0.021432)
 29:    888.03   0.002822   14.26  0.000992  (-0.019392 -0.023751 -0.007165)
 30:    898.15   0.002955   14.93  0.001027  (-0.010606 -0.008368 -0.029052)
 31:    941.78   0.001596    8.06  0.000529  (-0.001491  0.006223  0.022086)
 32:    983.58   0.012573   63.54  0.003989  (-0.043627 -0.007978 -0.044967)
 33:   1001.57   0.010888   55.02  0.003392  ( 0.009299  0.018987  0.054271)
 34:   1004.25   0.007384   37.32  0.002294  ( 0.040851 -0.024996 -0.000931)
 35:   1037.01   0.005007   25.31  0.001507  (-0.009379  0.028895  0.024166)
 36:   1047.24   0.000439    2.22  0.000131  (-0.000901 -0.003717 -0.010784)
 37:   1103.88   0.003949   19.96  0.001116  (-0.006038 -0.018310  0.027290)
 38:   1191.60   0.004787   24.19  0.001254  (-0.021042 -0.011685 -0.025969)
 39:   1222.55   0.006992   35.34  0.001785  ( 0.022063 -0.004618 -0.035732)
 40:   1242.66   0.008648   43.70  0.002172  ( 0.002787  0.046255  0.004934)
 41:   1253.21   0.026060  131.69  0.006489  (-0.030774 -0.069941  0.025501)
 42:   1268.56   0.004939   24.96  0.001215  ( 0.004445  0.025902  0.022897)
 43:   1276.20   0.001960    9.91  0.000479  ( 0.014497 -0.010016  0.012997)
 44:   1314.82   0.003150   15.92  0.000748  (-0.023190  0.008240 -0.011916)
 45:   1341.14   0.005420   27.39  0.001261  ( 0.020568  0.024278 -0.015771)
 46:   1364.75   0.000452    2.28  0.000103  ( 0.006291  0.007242  0.003365)
 47:   1402.78   0.004394   22.21  0.000977  ( 0.029153  0.010765 -0.003418)
 48:   1412.90   0.023119  116.83  0.005106  (-0.063243 -0.030984 -0.012100)
 49:   1424.33   0.013231   66.86  0.002899  ( 0.024429  0.037477 -0.029959)
 50:   1447.76   0.003342   16.89  0.000720  ( 0.022171 -0.010814  0.010574)
 51:   1483.69   0.002269   11.47  0.000477  (-0.001259 -0.020693  0.006893)
 52:   1498.08   0.001872    9.46  0.000390  ( 0.000817  0.003832  0.019354)
 53:   1513.31   0.000796    4.02  0.000164  (-0.009189 -0.006646  0.005960)
 54:   1519.31   0.000335    1.69  0.000069  (-0.001003 -0.006966  0.004395)
 55:   1536.72   0.001411    7.13  0.000286  ( 0.011953 -0.011966  0.000624)
 56:   1587.94   0.002279   11.52  0.000448  ( 0.004100  0.020172 -0.004924)
 57:   1628.79   0.001539    7.78  0.000295  ( 0.017151  0.000782  0.000307)
 58:   2971.08   0.013426   67.85  0.001410  ( 0.014011  0.021739 -0.027226)
 59:   2972.42   0.005786   29.24  0.000607  ( 0.023024  0.008578 -0.001939)
 60:   2997.91   0.006816   34.44  0.000709  (-0.008189  0.005963 -0.024634)
 61:   3019.19   0.004315   21.81  0.000446  ( 0.000809  0.005085  0.020481)
 62:   3040.89   0.003573   18.06  0.000367  (-0.010814 -0.013772  0.007751)
 63:   3080.18   0.002106   10.64  0.000213  (-0.010186  0.008758  0.005735)
 64:   3096.87   0.006497   32.83  0.000655  ( 0.013206  0.020810 -0.006869)
 65:   3114.08   0.001165    5.89  0.000117  (-0.006539  0.008400 -0.001847)
 66:   3734.68   0.002569   12.98  0.000215  ( 0.001275  0.008124  0.012125)
 67:   3743.46   0.002548   12.88  0.000212  (-0.006752  0.012333  0.003839)
 68:   3753.74   0.011798   59.62  0.000981  (-0.030377 -0.006870  0.003297)

* The epsilon (eps) is given for a Dirac delta lineshape.
** The dipole moment derivative (T) already includes vibrational overlap.

The first frequency considered to be a vibration is 6
The total number of vibrations considered is 63


--------------------------
THERMOCHEMISTRY AT 298.15K
--------------------------

Temperature         ...   298.15 K
Pressure            ...     1.00 atm
Total Mass          ...   169.18 AMU
Quasi RRHO          ...     True
Cut-Off Frequency   ...     1.00 cm^-1

Throughout the following assumptions are being made:
  (1) The electronic state is orbitally nondegenerate
  (2) There are no thermally accessible electronically excited states
  (3) Hindered rotations indicated by low frequency modes are not
      treated as such but are treated as vibrations and this may
      cause some error
  (4) All equations used are the standard statistical mechanics
      equations for an ideal gas
  (5) All vibrations are strictly harmonic

freq.      50.11  E(vib)   ...       0.52 
freq.      76.99  E(vib)   ...       0.49 
freq.      89.43  E(vib)   ...       0.47 
freq.     112.83  E(vib)   ...       0.45 
freq.     172.01  E(vib)   ...       0.38 
freq.     181.51  E(vib)   ...       0.37 
freq.     221.32  E(vib)   ...       0.33 
freq.     242.35  E(vib)   ...       0.31 
freq.     285.58  E(vib)   ...       0.28 
freq.     300.67  E(vib)   ...       0.26 
freq.     325.27  E(vib)   ...       0.24 
freq.     336.16  E(vib)   ...       0.24 
freq.     343.05  E(vib)   ...       0.23 
freq.     369.01  E(vib)   ...       0.21 
freq.     402.77  E(vib)   ...       0.19 
freq.     505.88  E(vib)   ...       0.14 
freq.     521.11  E(vib)   ...       0.13 
freq.     543.31  E(vib)   ...       0.12 
freq.     610.49  E(vib)   ...       0.10 
freq.     634.35  E(vib)   ...       0.09 
freq.     680.92  E(vib)   ...       0.08 
freq.     764.78  E(vib)   ...       0.06 
freq.     788.21  E(vib)   ...       0.05 
freq.     888.03  E(vib)   ...       0.04 
freq.     898.15  E(vib)   ...       0.03 
freq.     941.78  E(vib)   ...       0.03 
freq.     983.58  E(vib)   ...       0.02 
freq.    1001.57  E(vib)   ...       0.02 
freq.    1004.25  E(vib)   ...       0.02 
freq.    1037.01  E(vib)   ...       0.02 
freq.    1047.24  E(vib)   ...       0.02 
freq.    1103.88  E(vib)   ...       0.02 
freq.    1191.60  E(vib)   ...       0.01 
freq.    1222.55  E(vib)   ...       0.01 
freq.    1242.66  E(vib)   ...       0.01 
freq.    1253.21  E(vib)   ...       0.01 
freq.    1268.56  E(vib)   ...       0.01 
freq.    1276.20  E(vib)   ...       0.01 
freq.    1314.82  E(vib)   ...       0.01 
freq.    1341.14  E(vib)   ...       0.01 
freq.    1364.75  E(vib)   ...       0.01 
freq.    1402.78  E(vib)   ...       0.00 
freq.    1412.90  E(vib)   ...       0.00 
freq.    1424.33  E(vib)   ...       0.00 
freq.    1447.76  E(vib)   ...       0.00 
freq.    1483.69  E(vib)   ...       0.00 
freq.    1498.08  E(vib)   ...       0.00 
freq.    1513.31  E(vib)   ...       0.00 
freq.    1519.31  E(vib)   ...       0.00 
freq.    1536.72  E(vib)   ...       0.00 
freq.    1587.94  E(vib)   ...       0.00 
freq.    1628.79  E(vib)   ...       0.00 
freq.    2971.08  E(vib)   ...       0.00 
freq.    2972.42  E(vib)   ...       0.00 
freq.    2997.91  E(vib)   ...       0.00 
freq.    3019.19  E(vib)   ...       0.00 
freq.    3040.89  E(vib)   ...       0.00 
freq.    3080.18  E(vib)   ...       0.00 
freq.    3096.87  E(vib)   ...       0.00 
freq.    3114.08  E(vib)   ...       0.00 
freq.    3734.68  E(vib)   ...       0.00 
freq.    3743.46  E(vib)   ...       0.00 
freq.    3753.74  E(vib)   ...       0.00 

------------
INNER ENERGY
------------

The inner energy is: U= E(el) + E(ZPE) + E(vib) + E(rot) + E(trans)
    E(el)   - is the total energy from the electronic structure calculation
              = E(kin-el) + E(nuc-el) + E(el-el) + E(nuc-nuc)
    E(ZPE)  - the the zero temperature vibrational energy from the frequency calculation
    E(vib)  - the the finite temperature correction to E(ZPE) due to population
              of excited vibrational states
    E(rot)  - is the rotational thermal energy
    E(trans)- is the translational thermal energy

Summary of contributions to the inner energy U:
Electronic energy                ...   -591.61834384 Eh
Zero point energy                ...      0.18434751 Eh     115.68 kcal/mol
Thermal vibrational correction   ...      0.00968027 Eh       6.07 kcal/mol
Thermal rotational correction    ...      0.00141627 Eh       0.89 kcal/mol
Thermal translational correction ...      0.00141627 Eh       0.89 kcal/mol
-----------------------------------------------------------------------
Total thermal energy                   -591.42148352 Eh


Summary of corrections to the electronic energy:
(perhaps to be used in another calculation)
Total thermal correction                  0.01251281 Eh       7.85 kcal/mol
Non-thermal (ZPE) correction              0.18434751 Eh     115.68 kcal/mol
-----------------------------------------------------------------------
Total correction                          0.19686033 Eh     123.53 kcal/mol


--------
ENTHALPY
--------

The enthalpy is H = U + kB*T
                kB is Boltzmann's constant
Total thermal energy              ...   -591.42148352 Eh 
Thermal Enthalpy correction       ...      0.00094421 Eh       0.59 kcal/mol
-----------------------------------------------------------------------
Total Enthalpy                    ...   -591.42053931 Eh


Note: Only C1 symmetry has been detected, increase convergence thresholds 
      if your molecule has a higher symmetry. Symmetry factor of 1.0 is   
      used for the rotational entropy correction. 
 

Note: Rotational entropy computed according to Herzberg 
Infrared and Raman Spectra, Chapter V,1, Van Nostrand Reinhold, 1945 
Point Group:  C1, Symmetry Number:   1  
Rotational constants in cm-1:     0.044833     0.025465     0.017979 

Vibrational entropy computed according to the QRRHO of S. Grimme
Chem.Eur.J. 2012 18 9955 using a reference frequency of 100.0 cm-1


-------
ENTROPY
-------

The entropy contributions are T*S = T*(S(el)+S(vib)+S(rot)+S(trans))
     S(el)   - electronic entropy
     S(vib)  - vibrational entropy
     S(rot)  - rotational entropy
     S(trans)- translational entropy
The entropies will be listed as multiplied by the temperature to get
units of energy

Electronic entropy                ...      0.00000000 Eh      0.00 kcal/mol
Vibrational entropy               ...      0.01668679 Eh     10.47 kcal/mol
Rotational entropy                ...      0.01460648 Eh      9.17 kcal/mol
Translational entropy             ...      0.01961591 Eh     12.31 kcal/mol
-----------------------------------------------------------------------
Final entropy term                ...      0.05090918 Eh     31.95 kcal/mol

In case the symmetry of your molecule has not been determined correctly
or in case you have a reason to use a different symmetry number we print 
out the resulting rotational entropy values for sn=1,12:

 non-linear molecules -----------------------------------
|  sn= 1 | S(rot)=       0.01460648 Eh      9.17 kcal/mol|
|  sn= 2 | S(rot)=       0.01395202 Eh      8.76 kcal/mol|
|  sn= 3 | S(rot)=       0.01356919 Eh      8.51 kcal/mol|
|  sn= 4 | S(rot)=       0.01329757 Eh      8.34 kcal/mol|
|  sn= 5 | S(rot)=       0.01308688 Eh      8.21 kcal/mol|
|  sn= 6 | S(rot)=       0.01291474 Eh      8.10 kcal/mol|
|  sn= 7 | S(rot)=       0.01276919 Eh      8.01 kcal/mol|
|  sn= 8 | S(rot)=       0.01264311 Eh      7.93 kcal/mol|
|  sn= 9 | S(rot)=       0.01253190 Eh      7.86 kcal/mol|
|  sn=10 | S(rot)=       0.01243242 Eh      7.80 kcal/mol|
|  sn=11 | S(rot)=       0.01234243 Eh      7.74 kcal/mol|
|  sn=12 | S(rot)=       0.01226028 Eh      7.69 kcal/mol|
 linear molecules ---------------------------------------
|  Dinfh | S(rot)=       0.00912006 Eh      5.72 kcal/mol|
|  Cinfv | S(rot)=       0.00977451 Eh      6.13 kcal/mol|
 --------------------------------------------------------


-------------------
GIBBS FREE ENERGY
-------------------

The Gibbs free energy is G = H - T*S

Total enthalpy                    ...   -591.42053931 Eh 
Total entropy correction          ...     -0.05090918 Eh    -31.95 kcal/mol
-----------------------------------------------------------------------
Final Gibbs free energy         ...   -591.47144848 Eh

For completeness - the Gibbs free energy minus the electronic energy
G-E(el)                           ...      0.14689536 Eh     92.18 kcal/mol


Maximum memory used throughout the entire PROP-calculation: 69.4 MB

--------------------------------
SUGGESTED CITATIONS FOR THIS RUN
--------------------------------

Below you find a list of papers that are relevant to this ORCA run
We neither can nor want to force you to cite these papers, but we appreciate if you do
You receive ORCA, which is the product of decades of hard work by many enthusiastic individuals, for free
The only thing we kindly ask in return is that you cite our papers,
We deeply appreciate it, if you show your appreciation for ORCA by not just citing the generic ORCA reference.

Please note that relegating all ORCA citations to the supporting information does *not* help us.
SI sections are not indexed - citations you put there will not count into any citation statistics
But we need these citations in order to attract the funding resources that allow us to do what we are doing

Therefore, if you are a happy ORCA user, please consider citing a few of the papers listed below in the main body of your paper

In addition to the list printed below, the program has created the file m1_00_Vitamin_B6-B97-3C-TZ.bibtex that contains the list in bibtex format
You can import this file easily into all common literature databanks and citation aid programs


List of essential papers. We consider these as the minimum necessary citations

  1. Neese,F.
     Software update: the ORCA program system, version 5.0
     WIRES Comput. Molec. Sci., 2022 12(1)e1606
     doi.org/10.1002/wcms.1606

List of papers to cite with high priority. The work reported in these papers was absolutely
necessary for this run to complete.
Our perspective: the developers of density functionals and basis sets usually get cited in chemistry papers
Good! But without the algorithms to do something with them, the functionals or basis sets would not do anything.
Hence, in our opinion, the algorithm design and method developments papers are equally worthy of getting cited

  1. Neese,F.
     An improvement of the resolution of the identity approximation for the formation of the Coulomb matrix
     J. Comp. Chem., 2003 24(14)1740-1747
     doi.org/10.1002/jcc.10318
  2. Bykov,D.; Petrenko,T.; Izsak,R.; Kossmann,S.; Becker,U.; Valeev,E.; Neese,F.
     Efficient implementation of the analytic second derivatives of Hartree-Fock and hybrid DFT energies: a detailed analysis of different approximations
     Molec. Phys., 2015 113 1961-1977
     doi.org/10.1080/00268976.2015.1025114
  3. Neese,F.
     The SHARK Integral Generation and Digestion System
     J. Comp. Chem., 2022  1-16
     doi.org/10.1002/jcc.26942
  4. Grimme,S.; Antony,J.; Ehrlich,S.; Krieg,H.
     A consistent and accurate ab initio parametrization of density functional dispersion correction (DFT-D) for the 94 elements H-Pu
     J. Chem. Phys., 2010 132 154104
     doi.org/10.1063/1.3382344
  5. Grimme,S.; Ehrlich,S.; Goerigk,L.
     Effect of the damping function in dispersion corrected density functional theory
     J. Comput. Chem., 2011 32(7)1456-1465
     doi.org/10.1002/jcc.21759

List of suggested additional citations. These are papers that are important in the 'surrounding' of 
of this run, or papers that preceded the highly important papers. If you like your results we are grateful for a citation.

  1. Neese,F.
     The ORCA program system
     WIRES Comput. Molec. Sci., 2012 2(1)73-78
     doi.org/10.1002/wcms.81
  2. Neese,F.
     Software update: the ORCA program system, version 4.0
     WIRES Comput. Molec. Sci., 2018 8(1)1-6
     doi.org/10.1002/wcms.1327
  3. Neese,F.; Wennmohs,F.; Becker,U.; Riplinger,C.
     The ORCA quantum chemistry program package
     J. Chem. Phys., 2020 152 Art. No. L224108
     doi.org/10.1063/5.0004608

List of optional additional citations

  1. Neese,F.
     Approximate second-order SCF convergence for spin unrestricted wavefunctions
     Chem. Phys. Lett., 2000 325(1-3)93-98
     doi.org/10.1016/s0009-2614(00)00662-x

Timings for individual modules:

Sum of individual times          ...      183.096 sec (=   3.052 min)
Startup calculation              ...       38.799 sec (=   0.647 min)  21.2 %
SCF iterations                   ...       44.513 sec (=   0.742 min)  24.3 %
Property integrals               ...       34.657 sec (=   0.578 min)  18.9 %
SCF Response                     ...       24.780 sec (=   0.413 min)  13.5 %
Property calculations            ...       15.433 sec (=   0.257 min)   8.4 %
SCF Gradient evaluation          ...       23.746 sec (=   0.396 min)  13.0 %
Geometry relaxation              ...        1.168 sec (=   0.019 min)   0.6 %
                             ****ORCA TERMINATED NORMALLY****
TOTAL RUN TIME: 0 days 0 hours 3 minutes 13 seconds 615 msec
