
                                 *****************
                                 * O   R   C   A *
                                 *****************

                                            #,                                       
                                            ###                                      
                                            ####                                     
                                            #####                                    
                                            ######                                   
                                           ########,                                 
                                     ,,################,,,,,                         
                               ,,#################################,,                 
                          ,,##########################################,,             
                       ,#########################################, ''#####,          
                    ,#############################################,,   '####,        
                  ,##################################################,,,,####,       
                ,###########''''           ''''###############################       
              ,#####''   ,,,,##########,,,,          '''####'''          '####       
            ,##' ,,,,###########################,,,                        '##       
           ' ,,###''''                  '''############,,,                           
         ,,##''                                '''############,,,,        ,,,,,,###''
      ,#''                                            '''#######################'''  
     '                                                          ''''####''''         
             ,#######,   #######,   ,#######,      ##                                
            ,#'     '#,  ##    ##  ,#'     '#,    #''#        ,####,   ,####,        
            ##       ##  ##   ,#'  ##            #'  '#       #'       #'  '#        
            ##       ##  #######   ##           ,######,      #####,   #    #        
            '#,     ,#'  ##    ##  '#,     ,#' ,#      #,     #,   #   #,  ,#        
             '#######'   ##     ##  '#######'  #'      '#     '####' # '####'        



                #########################################################
                #                        -***-                          #
                #          Department of theory and spectroscopy        #
                #                                                       #
                #                      Frank Neese                      #
                #                                                       #
                #     Directorship, Architecture, Infrastructure        #
                #                    SHARK, DRIVERS                     #
                #        Core code/Algorithms in most modules           #
                #                                                       #
                #        Max Planck Institute fuer Kohlenforschung      #
                #                Kaiser Wilhelm Platz 1                 #
                #                 D-45470 Muelheim/Ruhr                 #
                #                      Germany                          #
                #                                                       #
                #                  All rights reserved                  #
                #                        -***-                          #
                #########################################################


                         Program Version 6.0.1  -  RELEASE   -


 With contributions from (in alphabetic order):
[Max-Planck-Institut fuer Kohlenforschung]                               
  Daniel Aravena         : Magnetic Suceptibility                        
  Michael Atanasov       : Ab Initio Ligand Field Theory (pilot matlab implementation)
  Alexander A. Auer      : GIAO ZORA, VPT2 properties, NMR spectrum      
  Ute Becker             : All parallelization in ORCA, NUMFREQ, NUMCALC 
  Giovanni Bistoni       : ED, misc. LED, open-shell LED, HFLD           
  Martin Brehm           : Molecular dynamics                            
  Dmytro Bykov           : pre 5.0 version of the SCF Hessian            
  Marcos Casanova-Páez   : Triplet and SCS-CIS(D). UHF-(DLPNO)-IP/EA/STEOM-CCSD. UHF-CVS-IP/STEOM-CCSD   
  Vijay G. Chilkuri      : MRCI spin determinant printing, contributions to CSF-ICE 
  Pauline Colinet        : FMM embedding                                 
  Dipayan Datta          : RHF DLPNO-CCSD density                        
  Achintya Kumar Dutta   : EOM-CC, STEOM-CC                              
  Nicolas Foglia         : Exact transition moments, OPA infrastructure, MCD improvements    
  Dmitry Ganyushin       : Spin-Orbit,Spin-Spin,Magnetic field MRCI      
  Miquel Garcia-Rates    : C-PCM and meta-GGA Hessian, CCSD/C-PCM, Gaussian charge scheme 
  Tiago L. C. Gouveia    : GS-ROHF, GS-ROCIS                             
  Yang Guo               : DLPNO-NEVPT2, F12-NEVPT2, CIM, IAO-localization        
  Andreas Hansen         : Spin unrestricted coupled pair/coupled cluster methods 
  Ingolf Harden          : AUTO-CI MPn and infrastructure                
  Benjamin Helmich-Paris : MC-RPA, TRAH-(SCF,CASSCF), AVAS, COSX integrals, SCF dyn. polar. 
  Lee Huntington         : MR-EOM, pCC                                   
  Robert Izsak           : Overlap fitted RIJCOSX, COSX-SCS-MP3, EOM     
  Riya Kayal             : Wick's Theorem for AUTO-CI, AUTO-CI UHF-CCSDT 
  Emily Kempfer          : AUTO-CI, RHF CISDT and CCSDT                  
  Christian Kollmar      : KDIIS, OOCD, Brueckner-CCSD(T), CCSD density, CASPT2, CASPT2-K, improved NEVPT2 
  Axel Koslowski         : Symmetry handling                             
  Simone Kossmann        : meta-GGA functionals, TD-DFT gradient, OOMP2, (MP2 Hessian; deprecated post 5.0) 
  Lucas Lang             : DCDCAS                                        
  Marvin Lechner         : AUTO-CI (C++ implementation), FIC-MRCC        
  Spencer Leger          : CASSCF response                               
  Dagmar Lenk            : GEPOL surface, SMD, ORCA-2-JSON               
  Dimitrios Liakos       : Extrapolation schemes; Compound Job, initial MDCI parallelization 
  Dimitrios Manganas     : Further ROCIS development; embedding schemes. LFT, Crystal Embedding 
  Dimitrios Pantazis     : SARC Basis sets                               
  Anastasios Papadopoulos: AUTO-CI, single reference methods and gradients 
  Taras Petrenko         : pre 6.0 DFT Hessian and TD-DFT gradient, (ASA, deprecated), ECA, 1-Electron XAS/XES, NRVS 
  Peter Pinski           : DLPNO-MP2, DLPNO-MP2 Gradient                 
  Christoph Reimann      : Effective Core Potentials                     
  Marius Retegan         : Local ZFS, SOC                                
  Christoph Riplinger    : Optimizer, TS searches, QM/MM, DLPNO-CCSD(T), (RO)-DLPNO pert. Triples 
  Michael Roemelt        : Original ROCIS implementation                 
  Masaaki Saitow         : Open-shell DLPNO-CCSD energy and density      
  Barbara Sandhoefer     : DKH picture change effects                    
  Kantharuban Sivalingam : CASSCF convergence/infrastructure, NEVPT2 and variants, FIC-MRCI 
  Bernardo de Souza      : ESD, SOC TD-DFT                               
  Georgi L. Stoychev     : AutoAux, RI-MP2 NMR, DLPNO-MP2 response, X2C  
  Van Anh Tran           : RI-MP2 g-tensors                              
  Willem Van den Heuvel  : Paramagnetic NMR                              
  Zikuan Wang            : NOTCH, Electric field optimization            
  Frank Wennmohs         : Technical directorship and infrastructure     
  Hang Xu                : AUTO-CI-Response properties                   
                                                                         
[FACCTs GmbH]                                                            
  Markus Bursch, Miquel Garcia-Rates, Christoph Riplinger, Bernardo de Souza, Georgi L. Stoychev 
                                                                 
  APM, Basis sets (HGBS, AHGBS, def-TZVP (Ac-Lr), def2-XVPD (La-Lu)), CI-OPT, improved COSX, DLPNO-Multilevel,           
  DOCKER, DRACO, updates on ESD, GOAT, IRC, LR-CPCM, MBIS, meta-GGA TD-DFT gradient, ML-optimized integration grids, 
  MM, NACMEs, nearIR, NEB, NEB-TS, NL-DFT gradient (VV10), 2- and 3-layer-ONIOM, interface openCOSMO-RS, QMMM,   
  Crystal-QMMM, SF, symmetry and pop. for TD-DFT, r2SCAN hybrids, SOLVATOR                                   
                                                                         
[Other institutions]                                                     
  V. Asgeirsson          : NEB                                           
  Christoph Bannwarth    : sTDA-DFT, sTD-DFT, PBEh-3c, B97-3c, D3        
  Sebastian Ehlert       : rSCAN, r2SCAN, r2SCAN-3c, D4, dhf basis sets  
  Marvin Friede          : D4 for Fr, Ra, Ac-Lr                          
  Lars Goerigk           : TD-DFT with DH, B97 family of functionals     
  Stefan Grimme          : VdW corrections, initial TS optimization, DFT functionals, gCP, sTDA/sTD-DF 
  Waldemar Hujo          : DFT-NL                                        
  H. Jonsson             : NEB                                           
  Holger Kruse           : gCP                                           
  Marcel Mueller         : wB97X-3c, vDZP basis set                      
  Hagen Neugebauer       : wr2SCAN                                       
  Tobias Risthaus        : range-separated hybrid DFT                    
  Lukas Wittmann         : regularized MP2, r2SCAN double-hybrids, wr2SCAN        
                                                                         
We gratefully acknowledge several colleagues who have allowed us to      
interface, adapt or use parts of their codes:                            
  Ed Valeev, F. Pavosevic, A. Kumar             : LibInt (2-el integral package), F12 methods 
  Garnet Chan, S. Sharma, J. Yang, R. Olivares  : DMRG                   
  Ulf Ekstrom                                   : XCFun DFT Library      
  Mihaly Kallay                                 : mrcc  (arbitrary order and MRCC methods)
  Frank Weinhold                                : gennbo (NPA and NBO analysis)           
  Simon Mueller                                 : openCOSMO-RS                            
  Christopher J. Cramer and Donald G. Truhlar   : smd solvation model                     
  S Lehtola, MJT Oliveira, MAL Marques          : LibXC Library                           
  Liviu Ungur et al                             : ANISO software                          


 Your calculation uses the libint2 library for the computation of 2-el integrals
 For citations please refer to: http://libint.valeyev.net

 Your ORCA version has been built with support for libXC version: 6.2.2
 For citations please refer to: https://libxc.gitlab.io

 This ORCA versions uses:
   CBLAS   interface :  Fast vector & matrix operations
   LAPACKE interface :  Fast linear algebra routines
   SCALAPACK package :  Parallel linear algebra routines
   Shared memory     :  Shared parallel matrices
   BLAS/LAPACK       :  OpenBLAS 0.3.27  USE64BITINT DYNAMIC_ARCH NO_AFFINITY Zen SINGLE_THREADED
        Core in use  :  Zen
   Copyright (c) 2011-2014, The OpenBLAS Project


NOTE: MaxCore=6000 MB was set to SCF,MP2,MDCI,CIPSI,MRCI and CIS
      => If you want to overwrite this, your respective input block should be placed after the MaxCore statement
Your calculation utilizes the atom-pairwise dispersion correction
with the Becke-Johnson damping scheme (D3BJ)


Your calculation employs the composite approach B97-3c by Grimme and coworkers.
For the correct reference, please check the publication list of the Grimme group:
http://www.thch.uni-bonn.de/tc/index.php?section=publikationen&subsection=grimme#2017
   

XCFun DFT library Copyright 2009-2010 Ulf Ekstrom and contributors.
See http://admol.org/xcfun for more information.
This is free software; see the source code for copying conditions.
There is ABSOLUTELY NO WARRANTY; not even for MERCHANTABILITY or FITNESS FOR A PARTICULAR PURPOSE.
For details see the documentation.
Scientific users of this library should cite U. Ekstrom, L. Visscher, R. Bast, A. J. Thorvaldsen and K. Ruud;
J.Chem.Theor.Comp. 2010, DOI: 10.1021/ct100117s
XCFun Version 0.99 

================================================================================

----- Orbital basis set information -----
Your calculation utilizes the basis: def2-mTZVP
----- AuxJ basis set information -----
Your calculation utilizes the basis: def2-mTZVP/J
================================================================================
                                        WARNINGS
                       Please study these warnings very carefully!
================================================================================


WARNING: Geometry Optimization
  ===> : Switching off AutoStart
         For restart on a previous wavefunction, please use MOREAD

================================================================================
                                       INPUT FILE
================================================================================
NAME = m1_00_Vitamin_B2-GFN1_0000-B97-3C-TZ.inp
|  1> %pal nprocs 16 end
|  2> %MaxCore 6000
|  3> # put your comments here
|  4> ! B97-3C  OPT  FREQ DEFGRID3 NOTRAH
|  5> %scf MaxIter 800 end
|  6> %output
|  7> Print [P_Hirshfeld] 1
|  8> end
|  9> %geom
| 10> MaxIter 3000
| 11>  TolE 1e-6 #TolE 5e-6 Energy change (a.u.)
| 12>  TolRMSG 3e-5 #TolRMSG 1e-4 RMS gradient (a.u.)
| 13>  TolMaxG 1e-4 #TolMaxG 3e-3 Max. element of gradient (a.u.)
| 14>  TolRMSD 2e-3 #TolRMSD 2e-3 RMS displacement (a.u.)
| 15>  TolMaxD 4e-3 #TolMaxD 4e-3 Max. displacement (a.u.)
| 16> end
| 17> * xyz 0 1
| 18>  O 1.75231284758556 -0.96349720240444 -1.49372509336051
| 19>  O 4.82965925819911 -0.81790759423991 -1.40248267459953
| 20>  O 2.48347354945650 0.52829118890974 -3.84228573171349
| 21>  O 5.30061508171581 0.57008974193810 -4.69287780995879
| 22>  O 5.41552447082213 -3.96353126671737 -8.10645611496600
| 23>  O 3.69231412614427 0.05159590144436 -6.99259276804152
| 24>  N 2.94799944369017 -3.35012796942085 -4.05474071043881
| 25>  N 4.55403615338701 -5.00161518452720 -5.62446515894935
| 26>  N 3.24047167202874 -1.64071901384331 -5.55796982604173
| 27>  N 4.43936085029883 -2.00130439833317 -7.56452705958896
| 28>  C 2.73169019250580 -1.74218384570078 -2.13569416057751
| 29>  C 2.04571147482016 -2.47342795789075 -3.31324373794343
| 30>  C 3.96929339866168 -0.88915285566367 -2.52049393872454
| 31>  C 3.58243929692009 0.54573332153737 -2.95783926061170
| 32>  C 3.25122267020114 -4.61648753989627 -3.61463839348476
| 33>  C 3.48221545802602 -2.88301095722649 -5.22178728952198
| 34>  C 4.07876400393658 -5.43027680240829 -4.42629507896031
| 35>  C 2.77790995907517 -5.14003453246396 -2.40340928078919
| 36>  C 4.27573205186803 -3.78997831636216 -6.00678409101282
| 37>  C 4.80196498626118 1.26013015423466 -3.57505787909734
| 38>  C 3.11778574563231 -6.41707117921845 -1.99631041614948
| 39>  C 4.41187361107292 -6.72763751883654 -3.99933967324543
| 40>  C 3.95014196780991 -7.22755455414049 -2.80316973498333
| 41>  C 4.77957752106843 -3.30862896138083 -7.31807791196144
| 42>  C 2.59896195379061 -6.93682675005039 -0.68678051433990
| 43>  C 4.32356397941309 -8.61502755134940 -2.36246099466721
| 44>  C 3.77390012108315 -1.12649131264403 -6.70782450142036
| 45>  H 3.06776088127200 -2.48872803823087 -1.40145209160816
| 46>  H 1.21587338858325 -3.06435226790445 -2.91912822231465
| 47>  H 1.64211372357806 -1.74179674862574 -4.01516164923399
| 48>  H 4.53675505485520 -1.38420290143904 -3.31859041971211
| 49>  H 3.26399660094095 1.10768679037313 -2.06679014103965
| 50>  H 2.14132051474284 -4.54454739443152 -1.76185048114185
| 51>  H 4.51811301766013 2.29094010564685 -3.83631274195438
| 52>  H 5.59951563270094 1.29061387225878 -2.82291293749047
| 53>  H 5.04855707810145 -7.32043670829192 -4.64575045372542
| 54>  H 1.45319991796692 -0.27217231547287 -2.10892878424167
| 55>  H 4.35211090727525 -0.43477626772097 -0.65348672294238
| 56>  H 2.75930273371513 0.10973275306738 -4.68477342121820
| 57>  H 1.97472103265360 -6.19419919036269 -0.19102732919114
| 58>  H 2.00757312218141 -7.84058414074658 -0.84417392282170
| 59>  H 3.42838283605303 -7.19256611986881 -0.02499245031125
| 60>  H 4.96655449195720 -9.09312544642035 -3.10059096428629
| 61>  H 4.85280965636450 -8.58350119913554 -1.40837626796776
| 62>  H 3.43009915888254 -9.22794417522049 -2.23015693031386
| 63>  H 4.80356784757257 -1.58736370993080 -8.41214320035860
| 64>  H 4.72006555746426 0.70895605911337 -5.46282906298833
| 65> *
| 66> 
| 67> 
| 68> 
| 69> 
| 70>                          ****END OF INPUT****
================================================================================

                       *****************************
                       * Geometry Optimization Run *
                       *****************************

Geometry optimization settings:
Update method            Update   .... BFGS
Choice of coordinates    CoordSys .... (2022) Redundant Internals
Initial Hessian          InHess   .... Almloef's Model
Max. no of cycles        MaxIter  .... 3000

Convergence Tolerances:
Energy Change            TolE     ....  1.0000e-06 Eh
Max. Gradient            TolMAXG  ....  1.0000e-04 Eh/bohr
RMS Gradient             TolRMSG  ....  3.0000e-05 Eh/bohr
Max. Displacement        TolMAXD  ....  4.0000e-03 bohr
RMS Displacement         TolRMSD  ....  2.0000e-03 bohr
Strict Convergence                .... False

------------------------------------------------------------------------------
                        ORCA OPTIMIZATION COORDINATE SETUP
------------------------------------------------------------------------------

The optimization will be done in redundant internal coordinates (2022)
Making redundant internal coordinates   ...  (2022 redundants) done
Evaluating the initial hessian          ...  (Almloef) done
Evaluating the coordinates              ...  done
Calculating the B-matrix                .... done
Calculating the G-matrix                .... done
Diagonalizing the G-matrix              .... done
Small eigenvalue found = 5.522e-03
Small eigenvalue found = 6.607e-03
Small eigenvalue found = 1.521e-02
Small eigenvalue found = 1.929e-02
Small eigenvalue found = 2.955e-02
The first mode is                       ....  108
The number of degrees of freedom        ....  135

    -----------------------------------------------------------------
                    Redundant Internal Coordinates


    -----------------------------------------------------------------
         Definition                    Initial Value    Approx d2E/dq
    -----------------------------------------------------------------
      1. B(C  10,O   0)                  1.4063         0.527087   
      2. B(C  11,N   6)                  1.4603         0.432194   
      3. B(C  11,C  10)                  1.5466         0.351501   
      4. B(C  12,C  10)                  1.5516         0.345105   
      5. B(C  12,O   1)                  1.4125         0.515137   
      6. B(C  13,C  12)                  1.5491         0.348214   
      7. B(C  13,O   2)                  1.4108         0.518485   
      8. B(C  14,N   6)                  1.3745         0.592346   
      9. B(C  15,N   6)                  1.3659         0.611482   
     10. B(C  15,N   8)                  1.3095         0.752201   
     11. B(C  16,C  14)                  1.4163         0.567286   
     12. B(C  16,N   7)                  1.3584         0.628484   
     13. B(C  17,C  14)                  1.4019         0.598166   
     14. B(C  18,C  15)                  1.4382         0.523366   
     15. B(C  18,N   7)                  1.3006         0.777018   
     16. B(C  19,C  13)                  1.5423         0.357123   
     17. B(C  19,O   3)                  1.4051         0.529385   
     18. B(C  20,C  17)                  1.3828         0.641601   
     19. B(C  21,C  16)                  1.4058         0.589468   
     20. B(C  22,C  21)                  1.3762         0.657280   
     21. B(C  22,C  20)                  1.4145         0.571084   
     22. B(C  23,C  18)                  1.4849         0.440825   
     23. B(C  23,N   9)                  1.3732         0.595298   
     24. B(C  23,O   4)                  1.2062         1.099389   
     25. B(C  24,C  20)                  1.5014         0.414965   
     26. B(C  25,C  22)                  1.5029         0.412660   
     27. B(C  26,N   9)                  1.3936         0.552278   
     28. B(C  26,N   8)                  1.3679         0.606931   
     29. B(C  26,O   5)                  1.2148         1.065275   
     30. B(H  27,C  10)                  1.0997         0.347469   
     31. B(H  28,C  11)                  1.0923         0.357052   
     32. B(H  29,C  11)                  1.0913         0.358428   
     33. B(H  30,C  12)                  1.0973         0.350584   
     34. B(H  31,C  13)                  1.1005         0.346436   
     35. B(H  32,C  17)                  1.0823         0.370384   
     36. B(H  33,C  19)                  1.1006         0.346304   
     37. B(H  34,C  19)                  1.0967         0.351352   
     38. B(H  35,C  21)                  1.0838         0.368395   
     39. B(H  36,O   2)                  2.1695         0.006113   
     40. B(H  36,O   0)                  0.9726         0.496509   
     41. B(H  37,O   1)                  0.9674         0.506036   
     42. B(H  38,N   8)                  2.0145         0.010805   
     43. B(H  38,O   2)                  0.9803         0.482528   
     44. B(H  39,C  24)                  1.0895         0.360803   
     45. B(H  40,C  24)                  1.0915         0.358170   
     46. B(H  41,C  24)                  1.0915         0.358162   
     47. B(H  42,C  25)                  1.0894         0.360859   
     48. B(H  43,C  25)                  1.0915         0.358121   
     49. B(H  44,C  25)                  1.0915         0.358074   
     50. B(H  45,N   9)                  1.0112         0.430866   
     51. B(H  46,O   5)                  1.9567         0.013361   
     52. B(H  46,O   3)                  0.9742         0.493452   
     53. A(C  10,O   0,H  36)          108.6038         0.357158   
     54. A(C  12,O   1,H  37)          109.3968         0.356920   
     55. A(C  13,O   2,H  38)          108.9579         0.354440   
     56. A(C  19,O   3,H  46)          110.3191         0.357047   
     57. A(C  14,N   6,C  15)          120.1576         0.423873   
     58. A(C  11,N   6,C  14)          121.7916         0.398578   
     59. A(C  11,N   6,C  15)          118.0471         0.400814   
     60. A(C  16,N   7,C  18)          118.5794         0.447304   
     61. A(C  15,N   8,C  26)          120.0299         0.441883   
     62. A(C  23,N   9,H  45)          116.8046         0.355941   
     63. A(C  23,N   9,C  26)          127.2737         0.416612   
     64. A(C  26,N   9,H  45)          115.4888         0.351447   
     65. A(C  11,C  10,H  27)          108.8401         0.319229   
     66. A(O   0,C  10,H  27)          106.4948         0.339263   
     67. A(O   0,C  10,C  11)          107.4865         0.379115   
     68. A(C  12,C  10,H  27)          107.1604         0.318274   
     69. A(C  11,C  10,C  12)          115.1448         0.354784   
     70. A(O   0,C  10,C  12)          111.3638         0.377912   
     71. A(C  10,C  11,H  28)          108.5441         0.320651   
     72. A(N   6,C  11,H  29)          107.7228         0.329956   
     73. A(C  10,C  11,H  29)          109.6811         0.320853   
     74. A(N   6,C  11,H  28)          109.1369         0.329747   
     75. A(H  28,C  11,H  29)          108.2885         0.290239   
     76. A(N   6,C  11,C  10)          113.3536         0.366370   
     77. A(C  13,C  12,H  30)          109.9798         0.319204   
     78. A(O   1,C  12,C  13)          109.1982         0.377000   
     79. A(C  10,C  12,H  30)          110.1722         0.318738   
     80. A(O   1,C  12,H  30)          106.4658         0.338471   
     81. A(O   1,C  12,C  10)          108.4981         0.376416   
     82. A(C  10,C  12,C  13)          112.3376         0.354219   
     83. A(O   2,C  13,H  31)          106.7684         0.338165   
     84. A(C  12,C  13,H  31)          108.4600         0.318585   
     85. A(C  12,C  13,C  19)          110.1556         0.356282   
     86. A(O   2,C  13,C  19)          111.7651         0.379077   
     87. A(C  19,C  13,H  31)          108.4395         0.319902   
     88. A(O   2,C  13,C  12)          111.1044         0.377423   
     89. A(N   6,C  14,C  17)          123.1097         0.424973   
     90. A(N   6,C  14,C  16)          118.3453         0.420967   
     91. A(C  16,C  14,C  17)          118.5449         0.424462   
     92. A(N   6,C  15,N   8)          118.1382         0.442480   
     93. A(N   8,C  15,C  18)          124.0551         0.433079   
     94. A(N   6,C  15,C  18)          117.8066         0.417321   
     95. A(C  14,C  16,C  21)          119.6471         0.423352   
     96. A(N   7,C  16,C  21)          118.4368         0.428380   
     97. A(N   7,C  16,C  14)          121.9112         0.425446   
     98. A(C  20,C  17,H  32)          118.5660         0.356663   
     99. A(C  14,C  17,H  32)          120.3484         0.352450   
    100. A(C  14,C  17,C  20)          121.0840         0.433941   
    101. A(N   7,C  18,C  23)          119.2709         0.422409   
    102. A(N   7,C  18,C  15)          123.0301         0.435616   
    103. A(C  15,C  18,C  23)          117.6955         0.396412   
    104. A(O   3,C  19,H  34)          107.5280         0.340141   
    105. A(C  13,C  19,H  33)          108.9591         0.319882   
    106. A(O   3,C  19,H  33)          111.2617         0.339319   
    107. A(O   3,C  19,C  13)          111.8092         0.380446   
    108. A(C  13,C  19,H  34)          108.2675         0.320639   
    109. A(H  33,C  19,H  34)          108.9240         0.287952   
    110. A(C  17,C  20,C  22)          120.3897         0.430342   
    111. A(C  22,C  20,C  24)          120.1671         0.398282   
    112. A(C  17,C  20,C  24)          119.4430         0.406541   
    113. A(C  16,C  21,C  22)          121.3121         0.434683   
    114. A(C  22,C  21,H  35)          121.1188         0.357802   
    115. A(C  16,C  21,H  35)          117.5689         0.351258   
    116. A(C  20,C  22,C  21)          119.0189         0.432213   
    117. A(C  21,C  22,C  25)          120.4555         0.407879   
    118. A(C  20,C  22,C  25)          120.5255         0.397893   
    119. A(O   4,C  23,N   9)          122.0220         0.471854   
    120. A(N   9,C  23,C  18)          112.5217         0.402900   
    121. A(O   4,C  23,C  18)          125.4560         0.449654   
    122. A(H  40,C  24,H  41)          107.7682         0.290348   
    123. A(H  39,C  24,H  41)          108.6159         0.290682   
    124. A(C  20,C  24,H  41)          110.3260         0.329688   
    125. A(H  39,C  24,H  40)          108.6374         0.290683   
    126. A(C  20,C  24,H  40)          110.3715         0.329690   
    127. A(C  20,C  24,H  39)          111.0337         0.330089   
    128. A(H  43,C  25,H  44)          107.8883         0.290331   
    129. A(H  42,C  25,H  44)          108.5910         0.290678   
    130. A(C  22,C  25,H  44)          110.5210         0.329372   
    131. A(H  42,C  25,H  43)          108.5865         0.290684   
    132. A(C  22,C  25,H  43)          110.4953         0.329379   
    133. A(C  22,C  25,H  42)          110.6777         0.329794   
    134. A(N   8,C  26,N   9)          117.8388         0.418050   
    135. A(O   5,C  26,N   9)          119.7854         0.462732   
    136. A(O   5,C  26,N   8)          122.3740         0.470800   
    137. D(C  11,C  10,O   0,H  36)    -65.2946         0.022052   
    138. D(H  27,C  10,O   0,H  36)    178.1928         0.022052   
    139. D(C  12,C  10,O   0,H  36)     61.6898         0.022052   
    140. D(N   6,C  11,C  10,H  27)    -63.6720         0.009948   
    141. D(N   6,C  11,C  10,C  12)     56.6290         0.009948   
    142. D(H  28,C  11,N   6,C  15)    139.7415         0.015926   
    143. D(H  29,C  11,N   6,C  14)   -156.9240         0.015926   
    144. D(H  28,C  11,C  10,O   0)    -57.2038         0.009948   
    145. D(H  28,C  11,C  10,H  27)     57.7591         0.009948   
    146. D(C  10,C  11,N   6,C  14)     81.5355         0.015926   
    147. D(H  28,C  11,N   6,C  14)    -39.5626         0.015926   
    148. D(H  28,C  11,C  10,C  12)    178.0602         0.009948   
    149. D(C  10,C  11,N   6,C  15)    -99.1605         0.015926   
    150. D(N   6,C  11,C  10,O   0)   -178.6350         0.009948   
    151. D(C  10,C  12,O   1,H  37)    -58.0465         0.021023   
    152. D(C  13,C  12,C  10,H  27)   -152.1548         0.009618   
    153. D(C  13,C  12,C  10,C  11)     86.6270         0.009618   
    154. D(C  13,C  12,C  10,O   0)    -36.0590         0.009618   
    155. D(O   1,C  12,C  10,H  27)    -31.3342         0.009618   
    156. D(O   1,C  12,C  10,C  11)   -152.5523         0.009618   
    157. D(H  30,C  12,O   1,H  37)   -176.6057         0.021023   
    158. D(O   1,C  12,C  10,O   0)     84.7616         0.009618   
    159. D(C  13,C  12,O   1,H  37)     64.6959         0.021023   
    160. D(C  19,C  13,C  12,O   1)     70.1150         0.009777   
    161. D(O   2,C  13,C  12,C  10)    -45.0622         0.009777   
    162. D(O   2,C  13,C  12,O   1)   -165.4791         0.009777   
    163. D(O   2,C  13,C  12,H  30)     78.0367         0.009777   
    164. D(H  31,C  13,O   2,H  38)    174.5867         0.023127   
    165. D(C  12,C  13,O   2,H  38)    -67.3287         0.023127   
    166. D(C  19,C  13,C  12,C  10)   -169.4682         0.009777   
    167. D(C  19,C  13,O   2,H  38)     56.1614         0.023127   
    168. D(C  19,C  13,C  12,H  30)    -46.3693         0.009777   
    169. D(C  17,C  14,N   6,C  15)    177.5826         0.028222   
    170. D(C  17,C  14,N   6,C  11)     -3.1278         0.028222   
    171. D(C  16,C  14,N   6,C  15)     -2.5626         0.028222   
    172. D(C  16,C  14,N   6,C  11)    176.7270         0.028222   
    173. D(C  18,C  15,N   8,C  26)     -1.1229         0.047545   
    174. D(C  18,C  15,N   6,C  14)      4.6337         0.030213   
    175. D(C  18,C  15,N   6,C  11)   -174.6821         0.030213   
    176. D(N   8,C  15,N   6,C  14)   -175.4387         0.030213   
    177. D(N   6,C  15,N   8,C  26)    178.9544         0.047545   
    178. D(N   8,C  15,N   6,C  11)      5.2455         0.030213   
    179. D(C  21,C  16,C  14,C  17)     -0.4660         0.022067   
    180. D(C  21,C  16,C  14,N   6)    179.6724         0.022067   
    181. D(N   7,C  16,C  14,C  17)    178.7121         0.022067   
    182. D(C  21,C  16,N   7,C  18)   -178.2836         0.029038   
    183. D(C  14,C  16,N   7,C  18)      2.5288         0.029038   
    184. D(N   7,C  16,C  14,N   6)     -1.1495         0.022067   
    185. D(H  32,C  17,C  14,C  16)   -179.8311         0.024658   
    186. D(H  32,C  17,C  14,N   6)      0.0234         0.024658   
    187. D(C  20,C  17,C  14,C  16)      0.6433         0.024658   
    188. D(C  20,C  17,C  14,N   6)   -179.5021         0.024658   
    189. D(C  23,C  18,C  15,N   8)     -3.9246         0.018685   
    190. D(C  23,C  18,C  15,N   6)    175.9984         0.018685   
    191. D(N   7,C  18,C  15,N   8)    176.7601         0.018685   
    192. D(N   7,C  18,C  15,N   6)     -3.3169         0.018685   
    193. D(C  23,C  18,N   7,C  16)   -179.5810         0.046217   
    194. D(C  15,C  18,N   7,C  16)     -0.2760         0.046217   
    195. D(O   3,C  19,C  13,C  12)     59.1512         0.010244   
    196. D(O   3,C  19,C  13,O   2)    -64.8733         0.010244   
    197. D(H  34,C  19,O   3,H  46)   -165.7792         0.022253   
    198. D(H  33,C  19,O   3,H  46)    -46.5804         0.022253   
    199. D(C  13,C  19,O   3,H  46)     75.5065         0.022253   
    200. D(H  33,C  19,C  13,H  31)    -58.9000         0.010244   
    201. D(H  33,C  19,C  13,C  12)   -177.4506         0.010244   
    202. D(H  33,C  19,C  13,O   2)     58.5248         0.010244   
    203. D(O   3,C  19,C  13,H  31)    177.7018         0.010244   
    204. D(C  24,C  20,C  17,H  32)     -0.0223         0.028611   
    205. D(C  24,C  20,C  17,C  14)    179.5116         0.028611   
    206. D(C  22,C  20,C  17,H  32)   -179.8454         0.028611   
    207. D(C  22,C  20,C  17,C  14)     -0.3116         0.028611   
    208. D(H  35,C  21,C  16,C  14)   -179.8912         0.023910   
    209. D(H  35,C  21,C  16,N   7)      0.9022         0.023910   
    210. D(C  22,C  21,C  16,C  14)     -0.0433         0.023910   
    211. D(C  22,C  21,C  16,N   7)   -179.2499         0.023910   
    212. D(C  25,C  22,C  21,H  35)      0.1318         0.030128   
    213. D(C  25,C  22,C  21,C  16)   -179.7107         0.030128   
    214. D(C  20,C  22,C  21,H  35)   -179.7757         0.030128   
    215. D(C  20,C  22,C  21,C  16)      0.3818         0.030128   
    216. D(C  25,C  22,C  20,C  24)      0.0628         0.022376   
    217. D(C  25,C  22,C  20,C  17)    179.8847         0.022376   
    218. D(C  21,C  22,C  20,C  24)    179.9703         0.022376   
    219. D(C  21,C  22,C  20,C  17)     -0.2079         0.022376   
    220. D(N   9,C  23,C  18,N   7)   -178.1893         0.013258   
    221. D(O   4,C  23,C  18,C  15)   -177.3103         0.013258   
    222. D(O   4,C  23,C  18,N   7)      2.0317         0.013258   
    223. D(C  18,C  23,N   9,H  45)    175.9489         0.028523   
    224. D(C  18,C  23,N   9,C  26)      3.8886         0.028523   
    225. D(O   4,C  23,N   9,H  45)     -4.2635         0.028523   
    226. D(N   9,C  23,C  18,C  15)      2.4687         0.013258   
    227. D(O   4,C  23,N   9,C  26)   -176.3238         0.028523   
    228. D(H  41,C  24,C  20,C  17)   -120.2126         0.012743   
    229. D(H  40,C  24,C  20,C  22)    -59.3814         0.012743   
    230. D(H  40,C  24,C  20,C  17)    120.7950         0.012743   
    231. D(H  39,C  24,C  20,C  22)   -179.9139         0.012743   
    232. D(H  39,C  24,C  20,C  17)      0.2626         0.012743   
    233. D(H  44,C  25,C  22,C  20)     59.6917         0.012606   
    234. D(H  43,C  25,C  22,C  21)    120.4419         0.012606   
    235. D(H  43,C  25,C  22,C  20)    -59.6520         0.012606   
    236. D(H  42,C  25,C  22,C  21)      0.1251         0.012606   
    237. D(H  42,C  25,C  22,C  20)   -179.9689         0.012606   
    238. D(N   8,C  26,N   9,H  45)    178.8376         0.024321   
    239. D(N   8,C  26,N   9,C  23)     -9.0125         0.024321   
    240. D(O   5,C  26,N   9,H  45)     -1.6375         0.024321   
    241. D(O   5,C  26,N   9,C  23)    170.5124         0.024321   
    242. D(N   9,C  26,N   8,C  15)      7.1761         0.029732   
    243. D(O   5,C  26,N   8,C  15)   -172.3358         0.029732   
    -----------------------------------------------------------------

Number of atoms                         .... 47
Number of degrees of freedom            .... 243


         *************************************************************
         *                GEOMETRY OPTIMIZATION CYCLE   1            *
         *************************************************************
---------------------------------
CARTESIAN COORDINATES (ANGSTROEM)
---------------------------------
  O      1.752313   -0.963497   -1.493725
  O      4.829659   -0.817908   -1.402483
  O      2.483474    0.528291   -3.842286
  O      5.300615    0.570090   -4.692878
  O      5.415524   -3.963531   -8.106456
  O      3.692314    0.051596   -6.992593
  N      2.947999   -3.350128   -4.054741
  N      4.554036   -5.001615   -5.624465
  N      3.240472   -1.640719   -5.557970
  N      4.439361   -2.001304   -7.564527
  C      2.731690   -1.742184   -2.135694
  C      2.045711   -2.473428   -3.313244
  C      3.969293   -0.889153   -2.520494
  C      3.582439    0.545733   -2.957839
  C      3.251223   -4.616488   -3.614638
  C      3.482215   -2.883011   -5.221787
  C      4.078764   -5.430277   -4.426295
  C      2.777910   -5.140035   -2.403409
  C      4.275732   -3.789978   -6.006784
  C      4.801965    1.260130   -3.575058
  C      3.117786   -6.417071   -1.996310
  C      4.411874   -6.727638   -3.999340
  C      3.950142   -7.227555   -2.803170
  C      4.779578   -3.308629   -7.318078
  C      2.598962   -6.936827   -0.686781
  C      4.323564   -8.615028   -2.362461
  C      3.773900   -1.126491   -6.707825
  H      3.067761   -2.488728   -1.401452
  H      1.215873   -3.064352   -2.919128
  H      1.642114   -1.741797   -4.015162
  H      4.536755   -1.384203   -3.318590
  H      3.263997    1.107687   -2.066790
  H      2.141321   -4.544547   -1.761850
  H      4.518113    2.290940   -3.836313
  H      5.599516    1.290614   -2.822913
  H      5.048557   -7.320437   -4.645750
  H      1.453200   -0.272172   -2.108929
  H      4.352111   -0.434776   -0.653487
  H      2.759303    0.109733   -4.684773
  H      1.974721   -6.194199   -0.191027
  H      2.007573   -7.840584   -0.844174
  H      3.428383   -7.192566   -0.024992
  H      4.966554   -9.093125   -3.100591
  H      4.852810   -8.583501   -1.408376
  H      3.430099   -9.227944   -2.230157
  H      4.803568   -1.587364   -8.412143
  H      4.720066    0.708956   -5.462829

----------------------------
CARTESIAN COORDINATES (A.U.)
----------------------------
  NO LB      ZA    FRAG     MASS         X           Y           Z
   0 O     8.0000    0    15.999    3.311391   -1.820746   -2.822731
   1 O     8.0000    0    15.999    9.126733   -1.545621   -2.650308
   2 O     8.0000    0    15.999    4.693085    0.998326   -7.260868
   3 O     8.0000    0    15.999   10.016711    1.077313   -8.868254
   4 O     8.0000    0    15.999   10.233858   -7.489989  -15.318982
   5 O     8.0000    0    15.999    6.977462    0.097502  -13.214085
   6 N     7.0000    0    14.007    5.570912   -6.330824   -7.662349
   7 N     7.0000    0    14.007    8.605881   -9.451683  -10.628699
   8 N     7.0000    0    14.007    6.123604   -3.100510  -10.503041
   9 N     7.0000    0    14.007    8.389176   -3.781917  -14.294884
  10 C     6.0000    0    12.011    5.162146   -3.292250   -4.035877
  11 C     6.0000    0    12.011    3.865834   -4.674101   -6.261123
  12 C     6.0000    0    12.011    7.500877   -1.680255   -4.763043
  13 C     6.0000    0    12.011    6.769829    1.031287   -5.589506
  14 C     6.0000    0    12.011    6.143920   -8.723897   -6.830677
  15 C     6.0000    0    12.011    6.580434   -5.448101   -9.867748
  16 C     6.0000    0    12.011    7.707747  -10.261736   -8.364485
  17 C     6.0000    0    12.011    5.249489   -9.713258   -4.541785
  18 C     6.0000    0    12.011    8.079963   -7.162021  -11.351177
  19 C     6.0000    0    12.011    9.074399    2.381301   -6.755880
  20 C     6.0000    0    12.011    5.891761  -12.126507   -3.772480
  21 C     6.0000    0    12.011    8.337233  -12.713392   -7.557657
  22 C     6.0000    0    12.011    7.464687  -13.658099   -5.297223
  23 C     6.0000    0    12.011    9.032093   -6.252403  -13.829163
  24 C     6.0000    0    12.011    4.911326  -13.108703   -1.297827
  25 C     6.0000    0    12.011    8.170352  -16.280043   -4.464404
  26 C     6.0000    0    12.011    7.131638   -2.128760  -12.675951
  27 H     1.0000    0     1.008    5.797228   -4.703014   -2.648361
  28 H     1.0000    0     1.008    2.297668   -5.790787   -5.516353
  29 H     1.0000    0     1.008    3.103145   -3.291519   -7.587556
  30 H     1.0000    0     1.008    8.573225   -2.615764   -6.271227
  31 H     1.0000    0     1.008    6.168060    2.093225   -3.905667
  32 H     1.0000    0     1.008    4.046509   -8.587950   -3.329415
  33 H     1.0000    0     1.008    8.537996    4.329249   -7.249580
  34 H     1.0000    0     1.008   10.581551    2.438907   -5.334532
  35 H     1.0000    0     1.008    9.540390  -13.833621   -8.779196
  36 H     1.0000    0     1.008    2.746150   -0.514331   -3.985298
  37 H     1.0000    0     1.008    8.224298   -0.821608   -1.234911
  38 H     1.0000    0     1.008    5.214326    0.207365   -8.852939
  39 H     1.0000    0     1.008    3.731682  -11.705340   -0.360989
  40 H     1.0000    0     1.008    3.793763  -14.816557   -1.595258
  41 H     1.0000    0     1.008    6.478705  -13.591980   -0.047229
  42 H     1.0000    0     1.008    9.385428  -17.183517   -5.859268
  43 H     1.0000    0     1.008    9.170481  -16.220467   -2.661445
  44 H     1.0000    0     1.008    6.481948  -17.438287   -4.214386
  45 H     1.0000    0     1.008    9.077428   -2.999683  -15.896647
  46 H     1.0000    0     1.008    8.919631    1.339733  -10.323251

--------------------------------
INTERNAL COORDINATES (ANGSTROEM)
--------------------------------
 O      0   0   0     0.000000000000     0.00000000     0.00000000
 O      1   0   0     3.082139264197     0.00000000     0.00000000
 O      1   2   0     2.876763050451    75.28016371     0.00000000
 O      3   1   2     2.943049509504   119.11756496    12.72341227
 O      4   3   1     5.676217090831   100.47720459    89.56258667
 O      4   3   1     2.853796894446    71.99302638   133.40014760
 N      1   2   3     3.699253146933    74.23151121    74.81968765
 N      7   1   2     2.787615249421   163.39188532    10.83052642
 N      6   4   3     2.264118892982    74.79101220   300.50730172
 N      5   4   3     2.257635222551    32.08014499    52.65000200
 C      1   2   3     1.406291987979    49.02932018    82.45045013
 C      7   1   2     1.460323337211    20.18894948   196.49332037
 C      2   1   3     1.412534773463    50.65711047   326.85631762
 C      3   1   2     1.410771243800    72.09639850   341.94508912
 C      7   1   2     1.374518437933   116.36164874    85.64010885
 C      9   6   4     1.309483878680   146.60823728   261.28443484
 C      8   7   1     1.358398299200    59.24889323    82.94617079
 C     15   7   1     1.401856747097   123.10966415    19.17101465
 C      8   7   1     1.300647853584    59.35960806   264.93474873
 C      4   3   1     1.405108211538    55.76064223   287.00497307
 C     18  15   7     1.382775337151   121.08397123   180.49785094
 C     17   8   7     1.405844144053   118.43678880   179.76809248
 C     22  17   8     1.376203354806   121.31209052   180.75009384
 C      5   4   3     1.206178155750    33.13246840   353.12775066
 C     21  18  15     1.501396864298   119.44298889   179.51155089
 C     23  22  17     1.502913673677   120.45545134   180.28932560
 C      6   4   3     1.214758710297    87.10197841   271.98302991
 H     11   1   2     1.099719580208   106.49482095    81.52831744
 H     12   7   1     1.092313979217   109.13685362   240.33613799
 H     12   7   1     1.091267210801   107.72281494   122.97469027
 H     13   2   1     1.097289967163   106.46583293   208.26939069
 H     14   3   1     1.100529865678   106.76838215   294.72295202
 H     18  15   7     1.082334858351   120.34839337     0.02341373
 H     20   4   3     1.100633998828   111.26166502   267.09296638
 H     20   4   3     1.096694261809   107.52803481   147.89421237
 H     22  17   8     1.083800541302   117.56894472     0.90223956
 H      1   2   3     0.972560653754   106.99106921   342.28679588
 H      2   1   3     0.967386673688    63.17597418   120.45813619
 H      3   1   2     0.980335865951   123.48389483    83.22722979
 H     25  21  18     1.089469430785   111.03369966     0.26256533
 H     25  21  18     1.091462714170   110.37152632   120.79499116
 H     25  21  18     1.091469223982   110.32597087   239.78742865
 H     26  23  22     1.089426568679   110.67774569     0.12506403
 H     26  23  22     1.091500143462   110.49525079   120.44190601
 H     26  23  22     1.091535862346   110.52102136   239.78563313
 H     10   5   4     1.011161091257    89.93404365   110.20860618
 H      4   3   1     0.974241518411    70.12505146   153.16186790

---------------------------
INTERNAL COORDINATES (A.U.)
---------------------------
 O      0   0   0     0.000000000000     0.00000000     0.00000000
 O      1   0   0     5.824399115937     0.00000000     0.00000000
 O      1   2   0     5.436294317537    75.28016371     0.00000000
 O      3   1   2     5.561557571533   119.11756496    12.72341227
 O      4   3   1    10.726495778354   100.47720459    89.56258667
 O      4   3   1     5.392894572339    71.99302638   133.40014760
 N      1   2   3     6.990575347749    74.23151121    74.81968765
 N      7   1   2     5.267829388149   163.39188532    10.83052642
 N      6   4   3     4.278564642373    74.79101220   300.50730172
 N      5   4   3     4.266312280916    32.08014499    52.65000200
 C      1   2   3     2.657506721608    49.02932018    82.45045013
 C      7   1   2     2.759611174303    20.18894948   196.49332037
 C      2   1   3     2.669303876486    50.65711047   326.85631762
 C      3   1   2     2.665971288394    72.09639850   341.94508912
 C      7   1   2     2.597463413719   116.36164874    85.64010885
 C      9   6   4     2.474565907491   146.60823728   261.28443484
 C      8   7   1     2.567000766272    59.24889323    82.94617079
 C     15   7   1     2.649125331003   123.10966415    19.17101465
 C      8   7   1     2.457868239947    59.35960806   264.93474873
 C      4   3   1     2.655269708330    55.76064223   287.00497307
 C     18  15   7     2.613066691956   121.08397123   180.49785094
 C     17   8   7     2.656660419236   118.43678880   179.76809248
 C     22  17   8     2.600647445167   121.31209052   180.75009384
 C      5   4   3     2.279346383086    33.13246840   353.12775066
 C     21  18  15     2.837228891852   119.44298889   179.51155089
 C     23  22  17     2.840095246175   120.45545134   180.28932560
 C      6   4   3     2.295561281257    87.10197841   271.98302991
 H     11   1   2     2.078168830704   106.49482095    81.52831744
 H     12   7   1     2.064174272975   109.13685362   240.33613799
 H     12   7   1     2.062196167341   107.72281494   122.97469027
 H     13   2   1     2.073577527438   106.46583293   208.26939069
 H     14   3   1     2.079700048332   106.76838215   294.72295202
 H     18  15   7     2.045316467480   120.34839337     0.02341373
 H     20   4   3     2.079896831467   111.26166502   267.09296638
 H     20   4   3     2.072451807463   107.52803481   147.89421237
 H     22  17   8     2.048086206857   117.56894472     0.90223956
 H      1   2   3     1.837873284222   106.99106921   342.28679588
 H      2   1   3     1.828095878875    63.17597418   120.45813619
 H      3   1   2     1.852566305909   123.48389483    83.22722979
 H     25  21  18     2.058798855463   111.03369966     0.26256533
 H     25  21  18     2.062565615168   110.37152632   120.79499116
 H     25  21  18     2.062577916929   110.32597087   239.78742865
 H     26  23  22     2.058717857820   110.67774569     0.12506403
 H     26  23  22     2.062636346278   110.49525079   120.44190601
 H     26  23  22     2.062703845188   110.52102136   239.78563313
 H     10   5   4     1.910817539752    89.93404365   110.20860618
 H      4   3   1     1.841049658093    70.12505146   153.16186790

---------------------
BASIS SET INFORMATION
---------------------
There are 4 groups of distinct atoms

 Group   1 Type O   : 11s6p2d contracted to 5s3p2d pattern {62111/411/11}
 Group   2 Type N   : 11s6p1d contracted to 5s3p1d pattern {62111/411/1}
 Group   3 Type C   : 11s6p1d contracted to 5s3p1d pattern {62111/411/1}
 Group   4 Type H   : 5s contracted to 3s pattern {311}

Atom   0O    basis set group =>   1
Atom   1O    basis set group =>   1
Atom   2O    basis set group =>   1
Atom   3O    basis set group =>   1
Atom   4O    basis set group =>   1
Atom   5O    basis set group =>   1
Atom   6N    basis set group =>   2
Atom   7N    basis set group =>   2
Atom   8N    basis set group =>   2
Atom   9N    basis set group =>   2
Atom  10C    basis set group =>   3
Atom  11C    basis set group =>   3
Atom  12C    basis set group =>   3
Atom  13C    basis set group =>   3
Atom  14C    basis set group =>   3
Atom  15C    basis set group =>   3
Atom  16C    basis set group =>   3
Atom  17C    basis set group =>   3
Atom  18C    basis set group =>   3
Atom  19C    basis set group =>   3
Atom  20C    basis set group =>   3
Atom  21C    basis set group =>   3
Atom  22C    basis set group =>   3
Atom  23C    basis set group =>   3
Atom  24C    basis set group =>   3
Atom  25C    basis set group =>   3
Atom  26C    basis set group =>   3
Atom  27H    basis set group =>   4
Atom  28H    basis set group =>   4
Atom  29H    basis set group =>   4
Atom  30H    basis set group =>   4
Atom  31H    basis set group =>   4
Atom  32H    basis set group =>   4
Atom  33H    basis set group =>   4
Atom  34H    basis set group =>   4
Atom  35H    basis set group =>   4
Atom  36H    basis set group =>   4
Atom  37H    basis set group =>   4
Atom  38H    basis set group =>   4
Atom  39H    basis set group =>   4
Atom  40H    basis set group =>   4
Atom  41H    basis set group =>   4
Atom  42H    basis set group =>   4
Atom  43H    basis set group =>   4
Atom  44H    basis set group =>   4
Atom  45H    basis set group =>   4
Atom  46H    basis set group =>   4
---------------------------------
AUXILIARY/J BASIS SET INFORMATION
---------------------------------
There are 4 groups of distinct atoms

 Group   1 Type O   : 8s3p3d contracted to 6s3p3d pattern {311111/111/111}
 Group   2 Type N   : 8s3p3d contracted to 6s3p3d pattern {311111/111/111}
 Group   3 Type C   : 8s3p3d contracted to 6s3p3d pattern {311111/111/111}
 Group   4 Type H   : 5s2p contracted to 3s1p pattern {311/2}

Atom   0O    basis set group =>   1
Atom   1O    basis set group =>   1
Atom   2O    basis set group =>   1
Atom   3O    basis set group =>   1
Atom   4O    basis set group =>   1
Atom   5O    basis set group =>   1
Atom   6N    basis set group =>   2
Atom   7N    basis set group =>   2
Atom   8N    basis set group =>   2
Atom   9N    basis set group =>   2
Atom  10C    basis set group =>   3
Atom  11C    basis set group =>   3
Atom  12C    basis set group =>   3
Atom  13C    basis set group =>   3
Atom  14C    basis set group =>   3
Atom  15C    basis set group =>   3
Atom  16C    basis set group =>   3
Atom  17C    basis set group =>   3
Atom  18C    basis set group =>   3
Atom  19C    basis set group =>   3
Atom  20C    basis set group =>   3
Atom  21C    basis set group =>   3
Atom  22C    basis set group =>   3
Atom  23C    basis set group =>   3
Atom  24C    basis set group =>   3
Atom  25C    basis set group =>   3
Atom  26C    basis set group =>   3
Atom  27H    basis set group =>   4
Atom  28H    basis set group =>   4
Atom  29H    basis set group =>   4
Atom  30H    basis set group =>   4
Atom  31H    basis set group =>   4
Atom  32H    basis set group =>   4
Atom  33H    basis set group =>   4
Atom  34H    basis set group =>   4
Atom  35H    basis set group =>   4
Atom  36H    basis set group =>   4
Atom  37H    basis set group =>   4
Atom  38H    basis set group =>   4
Atom  39H    basis set group =>   4
Atom  40H    basis set group =>   4
Atom  41H    basis set group =>   4
Atom  42H    basis set group =>   4
Atom  43H    basis set group =>   4
Atom  44H    basis set group =>   4
Atom  45H    basis set group =>   4
Atom  46H    basis set group =>   4


           ************************************************************
           *        Program running with 16 parallel MPI-processes    *
           *              working on a common directory               *
           ************************************************************
------------------------------------------------------------------------------
                             ORCA STARTUP CALCULATIONS
                           -- RI-GTO INTEGRALS CHOSEN --
------------------------------------------------------------------------------
------------------------------------------------------------------------------
                   ___                                                        
                  /   \      - P O W E R E D   B Y -                         
                 /     \                                                     
                 |  |  |   _    _      __       _____    __    __             
                 |  |  |  | |  | |    /  \     |  _  \  |  |  /  |          
                  \  \/   | |  | |   /    \    | | | |  |  | /  /          
                 / \  \   | |__| |  /  /\  \   | |_| |  |  |/  /          
                |  |  |   |  __  | /  /__\  \  |    /   |      \           
                |  |  |   | |  | | |   __   |  |    \   |  |\   \          
                \     /   | |  | | |  |  |  |  | |\  \  |  | \   \       
                 \___/    |_|  |_| |__|  |__|  |_| \__\ |__|  \__/        
                                                                              
                      - O R C A' S   B I G   F R I E N D -                    
                                      &                                       
                       - I N T E G R A L  F E E D E R -                       
                                                                              
 v1 FN, 2020, v2 2021, v3 2022-2024                                           
------------------------------------------------------------------------------


----------------------
SHARK INTEGRAL PACKAGE
----------------------

Number of atoms                             ...     47
Number of basis functions                   ...    603
Number of shells                            ...    309
Maximum angular momentum                    ...      2
Integral batch strategy                     ... SHARK/LIBINT Hybrid
RI-J (if used) integral strategy            ... SPLIT-RIJ (Revised 2003 algorithm where possible)
Printlevel                                  ...      1
Contraction scheme used                     ... SEGMENTED contraction
Prescreening option                         ... SCHWARTZ
   Thresh                                   ... 2.500e-11
   Tcut                                     ... 2.500e-12
   Tpresel                                  ... 2.500e-12 
Coulomb Range Separation                    ... NOT USED
Exchange Range Separation                   ... NOT USED
Multipole approximations                    ... NOT USED
Finite Nucleus Model                        ... NOT USED
CABS basis                                  ... NOT available
Auxiliary Coulomb fitting basis             ... AVAILABLE
   # of basis functions in Aux-J            ...    930
   # of shells in Aux-J                     ...    404
   Maximum angular momentum in Aux-J        ...      2
Auxiliary J/K fitting basis                 ... NOT available
Auxiliary Correlation fitting basis         ... NOT available
Auxiliary 'external' fitting basis          ... NOT available

Checking pre-screening integrals            ... done (  0.0 sec) Dimension = 309
Check shell pair data                       ... done (  0.0 sec)
Shell pair information
Shell pair cut-off parameter TPreSel        ...   2.5e-12
Total number of shell pairs                 ...     47895
Shell pairs after pre-screening             ...     33879
Total number of primitive shell pairs       ...    176182
Primitive shell pairs kept                  ...     76857
          la=0 lb=0:  12363 shell pairs
          la=1 lb=0:  11943 shell pairs
          la=1 lb=1:   2828 shell pairs
          la=2 lb=0:   4241 shell pairs
          la=2 lb=1:   2106 shell pairs
          la=2 lb=2:    398 shell pairs

Calculating one electron integrals          ... done (  0.0 sec)
Calculating RI/J V-Matrix + Cholesky decomp.... done (  0.0 sec)
Calculating Nuclear repulsion               ... done (  0.0 sec) ENN=   2681.373395463450 Eh

Diagonalization of the overlap matrix:
Smallest eigenvalue                        ... 5.080e-06
Time for diagonalization                   ...    0.036 sec
Threshold for overlap eigenvalues          ... 1.000e-07
Number of eigenvalues below threshold      ... 0
Time for construction of square roots      ...    0.021 sec
Total time needed                          ...    0.062 sec

-------------------
DFT GRID GENERATION
-------------------

General Integration Accuracy     IntAcc      ... 4.959
Radial Grid Type                 RadialGrid  ... OptM3 with GC (2021)
Angular Grid (max. ang.)         AngularGrid ... 6 (Lebedev-590)
Angular grid pruning method      GridPruning ... 4 (adaptive)
Weight generation scheme         WeightScheme... mBecke (2022)
Basis function cutoff            BFCut       ... 1.0000e-11
Integration weight cutoff        WCut        ... 1.0000e-14
Partially contracted basis set               ... off
Rotationally invariant grid construction     ... off
Angular grids for H and He will be reduced by one unit
Diffuse basis detected: some atoms will have their outermost
                        angular grid increased by 1.

Total number of grid points                  ...   553635
Total number of batches                      ...     8673
Average number of points per batch           ...       63
Average number of grid points per atom       ...    11779
Initializing property integral containers    ... done (  0.0 sec)

SHARK setup successfully completed in   4.6 seconds

Maximum memory used throughout the entire STARTUP-calculation: 137.9 MB


           ************************************************************
           *        Program running with 16 parallel MPI-processes    *
           *              working on a common directory               *
           ************************************************************
-------------------------------------------------------------------------------
                                 ORCA GUESS
                   Start orbitals & Density for SCF / CASSCF
-------------------------------------------------------------------------------

------------
SCF SETTINGS
------------
Hamiltonian:
 Density Functional     Method          .... DFT(GTOs)
 Exchange Functional    Exchange        .... B973C
 Correlation Functional Correlation     .... B973C
 Gradients option       PostSCFGGA      .... off
 RI-approximation to the Coulomb term is turned on
   Number of AuxJ basis functions       .... 930


General Settings:
 Integral files         IntName         .... m1_00_Vitamin_B2-GFN1_0000-B97-3C-TZ
 Hartree-Fock type      HFTyp           .... RHF
 Total Charge           Charge          ....    0
 Multiplicity           Mult            ....    1
 Number of Electrons    NEL             ....  198
 Basis Dimension        Dim             ....  603
 Nuclear Repulsion      ENuc            ....   2681.3733954634 Eh

Convergence Acceleration:
 AO-DIIS                CNVDIIS         .... on
   Start iteration      DIISMaxIt       ....    12
   Startup error        DIISStart       ....  0.200000
   # of expansion vecs  DIISMaxEq       ....     5
   Bias factor          DIISBfac        ....   1.050
   Max. coefficient     DIISMaxC        ....  10.000
 MO-DIIS                CNVKDIIS        .... off
 Trust-Rad. Augm. Hess. CNVTRAH         .... off
 SOSCF                  CNVSOSCF        .... on
   Start iteration      SOSCFMaxIt      ....   150
   Startup grad/error   SOSCFStart      ....  0.003300
   Hessian update       SOSCFHessUp     .... L-BFGS
 Level Shifting         CNVShift        .... on
   Level shift para.    LevelShift      ....    0.2500
   Turn off err/grad.   ShiftErr        ....    0.0010
 Zerner damping         CNVZerner       .... off
 Static damping         CNVDamp         .... on
   Fraction old density DampFac         ....    0.7000
   Max. Damping (<1)    DampMax         ....    0.9800
   Min. Damping (>=0)   DampMin         ....    0.0000
   Turn off err/grad.   DampErr         ....    0.1000

SCF Procedure:
 Maximum # iterations   MaxIter         ....   800
 SCF integral mode      SCFMode         .... Direct
   Integral package                     .... SHARK and LIBINT hybrid scheme
 Reset frequency        DirectResetFreq ....    20
 Integral Threshold     Thresh          ....  2.500e-11 Eh
 Primitive CutOff       TCut            ....  2.500e-12 Eh

Convergence Tolerance:
 Convergence Check Mode ConvCheckMode   .... Total+1el-Energy
 Convergence forced     ConvForced      .... 0
 Energy Change          TolE            ....  1.000e-08 Eh
 1-El. energy change                    ....  1.000e-05 Eh
 Orbital Gradient       TolG            ....  1.000e-05
 Orbital Rotation angle TolX            ....  1.000e-05
 DIIS Error             TolErr          ....  5.000e-07

--------------------------------
INITIAL GUESS: MINIMAL BASIS EHT
--------------------------------
The minimal basis has 155 functions
EHT matrix was diagonalized
Basis set overlap was calculated now projecting the orbitals
Using GuessMode=FMatrix for the initial guess
C*T matrix was formed
Effective Fockian was calculated
Effective Fockian was diagonalized
Initial density was built
                      ------------------
                      INITIAL GUESS DONE
                      ------------------
             **** ENERGY FILE WAS UPDATED (m1_00_Vitamin_B2-GFN1_0000-B97-3C-TZ.en.tmp) ****
Finished Guess after   0.4 sec
Maximum memory used throughout the entire GUESS-calculation: 58.9 MB


           ************************************************************
           *        Program running with 16 parallel MPI-processes    *
           *              working on a common directory               *
           ************************************************************

-------------------------------------------------------------------------------------------
                                      ORCA LEAN-SCF
                              memory conserving SCF solver
-------------------------------------------------------------------------------------------

----------------------------------------D-I-I-S--------------------------------------------
Iteration    Energy (Eh)           Delta-E    RMSDP     MaxDP     DIISErr   Damp  Time(sec)
-------------------------------------------------------------------------------------------
               ***  Starting incremental Fock matrix formation  ***
    1    -1324.7096388765871779     0.00e+00  7.44e-03  3.96e-01  4.66e-01  0.700   1.3
Warning: op=0 Small HOMO/LUMO gap (   0.016) - skipping pre-diagonalization
         Will do a full diagonalization
    2    -1326.4332991369387855    -1.72e+00  6.26e-03  4.91e-01  3.32e-01  0.700   1.5
    3    -1327.3093785742667023    -8.76e-01  3.70e-03  2.87e-01  2.37e-01  0.700   1.3
                               ***Turning on AO-DIIS***
    4    -1327.9218768628629732    -6.12e-01  2.73e-03  2.27e-01  1.66e-01  0.700   1.3
    5    -1328.3500168036098330    -4.28e-01  1.96e-03  1.55e-01  1.14e-01  0.700   1.3
    6    -1328.6533133445000203    -3.03e-01  1.32e-03  1.06e-01  7.91e-02  0.700   1.3
    7    -1328.8681082255361616    -2.15e-01  2.95e-03  2.34e-01  5.55e-02  0.000   1.3
    8    -1329.3647116686033769    -4.97e-01  4.38e-04  4.37e-02  2.21e-02  0.000   1.3
    9    -1329.3682299893121126    -3.52e-03  1.86e-04  2.24e-02  1.05e-02  0.000   1.3
   10    -1329.3684508986411856    -2.21e-04  6.31e-05  4.46e-03  5.42e-03  0.000   1.3
                              *** Initializing SOSCF ***
---------------------------------------S-O-S-C-F--------------------------------------
Iteration    Energy (Eh)           Delta-E    RMSDP     MaxDP     MaxGrad    Time(sec)
--------------------------------------------------------------------------------------
   11    -1329.3686835271087148    -2.33e-04  3.80e-05  3.19e-03  1.31e-03     1.4
               *** Restarting incremental Fock matrix formation ***
   12    -1329.3686973329249668    -1.38e-05  7.30e-05  6.48e-03  1.35e-04     1.4
   13    -1329.3686929941241033     4.34e-06  2.47e-05  3.08e-03  2.87e-04     1.2
   14    -1329.3686995583843782    -6.56e-06  1.51e-05  1.33e-03  2.52e-05     1.2
   15    -1329.3686992047028070     3.54e-07  6.84e-06  5.44e-04  5.98e-05     1.2
   16    -1329.3686997170525501    -5.12e-07  2.80e-05  1.70e-03  1.09e-05     1.2
   17    -1329.3686997122517823     4.80e-09  7.46e-06  6.14e-04  2.22e-05     1.2
                 **** Energy Check signals convergence ****

               *****************************************************
               *                     SUCCESS                       *
               *           SCF CONVERGED AFTER  17 CYCLES          *
               *****************************************************

             **** ENERGY FILE WAS UPDATED (m1_00_Vitamin_B2-GFN1_0000-B97-3C-TZ.en.tmp) ****

----------------
TOTAL SCF ENERGY
----------------

Total Energy       :      -1329.36869971225178 Eh          -36173.96137 eV

Components:
Nuclear Repulsion  :       2681.37339546344992 Eh           72963.87950 eV
Electronic Energy  :      -4010.74209517570171 Eh         -109137.84087 eV
One Electron Energy:      -7146.52533338623925 Eh         -194466.84082 eV
Two Electron Energy:       3135.78323821053755 Eh           85328.99995 eV

Virial components:
Potential Energy   :      -2653.98543814937602 Eh          -72218.61530 eV
Kinetic Energy     :       1324.61673843712447 Eh           36044.65393 eV
Virial Ratio       :          2.00358742354467

DFT components:
N(Alpha)           :       99.000009812279 electrons
N(Beta)            :       99.000009812279 electrons
N(Total)           :      198.000019624559 electrons
E(XC)              :     -178.100092808833 Eh       

---------------
SCF CONVERGENCE
---------------

  Last Energy change         ...   -4.8008e-09  Tolerance :   1.0000e-08
  Last MAX-Density change    ...    6.1402e-04  Tolerance :   1.0000e-07
  Last RMS-Density change    ...    7.4625e-06  Tolerance :   5.0000e-09
  Last DIIS Error            ...    1.3059e-03  Tolerance :   5.0000e-07
  Last Orbital Gradient      ...    2.2188e-05  Tolerance :   1.0000e-05
  Last Orbital Rotation      ...    4.3214e-05  Tolerance :   1.0000e-05


----------------
ORBITAL ENERGIES
----------------

  NO   OCC          E(Eh)            E(eV) 
   0   2.0000     -18.757563      -510.4192 
   1   2.0000     -18.748550      -510.1740 
   2   2.0000     -18.739283      -509.9218 
   3   2.0000     -18.733095      -509.7534 
   4   2.0000     -18.733068      -509.7527 
   5   2.0000     -18.729202      -509.6475 
   6   2.0000     -14.098474      -383.6390 
   7   2.0000     -14.046351      -382.2207 
   8   2.0000     -14.033543      -381.8721 
   9   2.0000     -13.998487      -380.9182 
  10   2.0000     -10.030884      -272.9542 
  11   2.0000     -10.013480      -272.4806 
  12   2.0000     -10.013117      -272.4708 
  13   2.0000      -9.986310      -271.7413 
  14   2.0000      -9.974454      -271.4187 
  15   2.0000      -9.965233      -271.1678 
  16   2.0000      -9.962207      -271.0854 
  17   2.0000      -9.953658      -270.8528 
  18   2.0000      -9.946215      -270.6503 
  19   2.0000      -9.943338      -270.5720 
  20   2.0000      -9.939221      -270.4599 
  21   2.0000      -9.935186      -270.3502 
  22   2.0000      -9.933381      -270.3010 
  23   2.0000      -9.927012      -270.1277 
  24   2.0000      -9.925565      -270.0884 
  25   2.0000      -9.920275      -269.9444 
  26   2.0000      -9.915088      -269.8033 
  27   2.0000      -1.005923       -27.3726 
  28   2.0000      -0.980610       -26.6838 
  29   2.0000      -0.978236       -26.6192 
  30   2.0000      -0.968646       -26.3582 
  31   2.0000      -0.947001       -25.7692 
  32   2.0000      -0.942560       -25.6484 
  33   2.0000      -0.922599       -25.1052 
  34   2.0000      -0.901902       -24.5420 
  35   2.0000      -0.892286       -24.2803 
  36   2.0000      -0.852250       -23.1909 
  37   2.0000      -0.823405       -22.4060 
  38   2.0000      -0.753105       -20.4930 
  39   2.0000      -0.741285       -20.1714 
  40   2.0000      -0.729230       -19.8434 
  41   2.0000      -0.693262       -18.8646 
  42   2.0000      -0.685689       -18.6585 
  43   2.0000      -0.677753       -18.4426 
  44   2.0000      -0.646188       -17.5837 
  45   2.0000      -0.639855       -17.4113 
  46   2.0000      -0.619431       -16.8556 
  47   2.0000      -0.597043       -16.2464 
  48   2.0000      -0.585725       -15.9384 
  49   2.0000      -0.574746       -15.6396 
  50   2.0000      -0.563029       -15.3208 
  51   2.0000      -0.553594       -15.0640 
  52   2.0000      -0.537575       -14.6282 
  53   2.0000      -0.530282       -14.4297 
  54   2.0000      -0.492978       -13.4146 
  55   2.0000      -0.488580       -13.2949 
  56   2.0000      -0.482483       -13.1290 
  57   2.0000      -0.473821       -12.8933 
  58   2.0000      -0.468174       -12.7397 
  59   2.0000      -0.458333       -12.4719 
  60   2.0000      -0.453392       -12.3374 
  61   2.0000      -0.445061       -12.1107 
  62   2.0000      -0.437330       -11.9003 
  63   2.0000      -0.430875       -11.7247 
  64   2.0000      -0.428247       -11.6532 
  65   2.0000      -0.424682       -11.5562 
  66   2.0000      -0.421611       -11.4726 
  67   2.0000      -0.412811       -11.2332 
  68   2.0000      -0.400953       -10.9105 
  69   2.0000      -0.398614       -10.8468 
  70   2.0000      -0.390568       -10.6279 
  71   2.0000      -0.389278       -10.5928 
  72   2.0000      -0.384257       -10.4562 
  73   2.0000      -0.380109       -10.3433 
  74   2.0000      -0.378592       -10.3020 
  75   2.0000      -0.376620       -10.2483 
  76   2.0000      -0.373561       -10.1651 
  77   2.0000      -0.357030        -9.7153 
  78   2.0000      -0.352711        -9.5977 
  79   2.0000      -0.345802        -9.4097 
  80   2.0000      -0.344279        -9.3683 
  81   2.0000      -0.342390        -9.3169 
  82   2.0000      -0.334942        -9.1142 
  83   2.0000      -0.323751        -8.8097 
  84   2.0000      -0.313510        -8.5310 
  85   2.0000      -0.295781        -8.0486 
  86   2.0000      -0.289084        -7.8664 
  87   2.0000      -0.282466        -7.6863 
  88   2.0000      -0.271891        -7.3985 
  89   2.0000      -0.266643        -7.2557 
  90   2.0000      -0.259080        -7.0499 
  91   2.0000      -0.256509        -6.9800 
  92   2.0000      -0.253333        -6.8935 
  93   2.0000      -0.248755        -6.7690 
  94   2.0000      -0.237547        -6.4640 
  95   2.0000      -0.231652        -6.3036 
  96   2.0000      -0.230175        -6.2634 
  97   2.0000      -0.218739        -5.9522 
  98   2.0000      -0.203780        -5.5451 
  99   0.0000      -0.142394        -3.8747 
 100   0.0000      -0.081791        -2.2257 
 101   0.0000      -0.060119        -1.6359 
 102   0.0000      -0.033331        -0.9070 
 103   0.0000      -0.014041        -0.3821 
 104   0.0000       0.002713         0.0738 
 105   0.0000       0.011193         0.3046 
 106   0.0000       0.021840         0.5943 
 107   0.0000       0.026887         0.7316 
 108   0.0000       0.030267         0.8236 
 109   0.0000       0.042337         1.1520 
*Only the first 10 virtual orbitals were printed.

                    ********************************
                    * MULLIKEN POPULATION ANALYSIS *
                    ********************************

-----------------------
MULLIKEN ATOMIC CHARGES
-----------------------
   0 O :   -0.541581
   1 O :   -0.539532
   2 O :   -0.592344
   3 O :   -0.567195
   4 O :   -0.341163
   5 O :   -0.490747
   6 N :    0.058767
   7 N :    0.048281
   8 N :   -0.293775
   9 N :   -0.378499
  10 C :    0.035312
  11 C :   -0.378304
  12 C :   -0.221918
  13 C :    0.041090
  14 C :    0.020502
  15 C :    0.056605
  16 C :   -0.057275
  17 C :   -0.215379
  18 C :    0.093436
  19 C :   -0.176623
  20 C :    0.178690
  21 C :   -0.204593
  22 C :    0.151704
  23 C :    0.155014
  24 C :   -0.638081
  25 C :   -0.630206
  26 C :    0.389402
  27 H :    0.177151
  28 H :    0.233411
  29 H :    0.244573
  30 H :    0.199553
  31 H :    0.159550
  32 H :    0.263751
  33 H :    0.165887
  34 H :    0.152274
  35 H :    0.211498
  36 H :    0.444711
  37 H :    0.434187
  38 H :    0.434781
  39 H :    0.194676
  40 H :    0.185700
  41 H :    0.187778
  42 H :    0.197537
  43 H :    0.181082
  44 H :    0.180085
  45 H :    0.365681
  46 H :    0.424542
Sum of atomic charges:   -0.0000000

--------------------------------
MULLIKEN REDUCED ORBITAL CHARGES
--------------------------------
  0 O s       :     3.811155  s :     3.811155
      pz      :     1.622722  p :     4.696624
      px      :     1.578275
      py      :     1.495627
      dz2     :     0.002716  d :     0.033802
      dxz     :     0.013304
      dyz     :     0.011668
      dx2y2   :     0.001764
      dxy     :     0.004351

  1 O s       :     3.804219  s :     3.804219
      pz      :     1.276184  p :     4.694285
      px      :     1.593977
      py      :     1.824124
      dz2     :     0.003129  d :     0.041028
      dxz     :     0.016027
      dyz     :     0.008493
      dx2y2   :     0.004575
      dxy     :     0.008805

  2 O s       :     3.796722  s :     3.796722
      pz      :     1.367930  p :     4.766984
      px      :     1.557787
      py      :     1.841267
      dz2     :     0.006351  d :     0.028638
      dxz     :     0.005723
      dyz     :     0.009255
      dx2y2   :     0.006883
      dxy     :     0.000426

  3 O s       :     3.810396  s :     3.810396
      pz      :     1.275766  p :     4.736105
      px      :     1.712559
      py      :     1.747780
      dz2     :    -0.001848  d :     0.020694
      dxz     :     0.017616
      dyz     :    -0.000045
      dx2y2   :    -0.000269
      dxy     :     0.005240

  4 O s       :     3.843121  s :     3.843121
      pz      :     1.484906  p :     4.468383
      px      :     1.371995
      py      :     1.611482
      dz2     :     0.004310  d :     0.029659
      dxz     :     0.008032
      dyz     :     0.007646
      dx2y2   :     0.003157
      dxy     :     0.006515

  5 O s       :     3.864525  s :     3.864525
      pz      :     1.715324  p :     4.587299
      px      :     1.560141
      py      :     1.311834
      dz2     :     0.010350  d :     0.038923
      dxz     :     0.006505
      dyz     :     0.005644
      dx2y2   :     0.014247
      dxy     :     0.002177

  6 N s       :     3.220698  s :     3.220698
      pz      :     1.205825  p :     3.667011
      px      :     1.306375
      py      :     1.154810
      dz2     :     0.011945  d :     0.053524
      dxz     :     0.008735
      dyz     :     0.012714
      dx2y2   :     0.009769
      dxy     :     0.010360

  7 N s       :     3.484899  s :     3.484899
      pz      :     1.112091  p :     3.418174
      px      :     1.154154
      py      :     1.151928
      dz2     :     0.012589  d :     0.048645
      dxz     :     0.008332
      dyz     :     0.008492
      dx2y2   :     0.009806
      dxy     :     0.009427

  8 N s       :     3.465913  s :     3.465913
      pz      :     1.255359  p :     3.785329
      px      :     1.348952
      py      :     1.181017
      dz2     :     0.010077  d :     0.042533
      dxz     :     0.007137
      dyz     :     0.007703
      dx2y2   :     0.009807
      dxy     :     0.007809

  9 N s       :     3.357223  s :     3.357223
      pz      :     1.317242  p :     3.981793
      px      :     1.487338
      py      :     1.177212
      dz2     :     0.007348  d :     0.039483
      dxz     :     0.005367
      dyz     :     0.011697
      dx2y2   :     0.007235
      dxy     :     0.007835

 10 C s       :     3.113940  s :     3.113940
      pz      :     0.966272  p :     2.780039
      px      :     0.851362
      py      :     0.962405
      dz2     :     0.008996  d :     0.070708
      dxz     :     0.014230
      dyz     :     0.017899
      dx2y2   :     0.013180
      dxy     :     0.016403

 11 C s       :     3.253318  s :     3.253318
      pz      :     1.020807  p :     3.072534
      px      :     0.998690
      py      :     1.053037
      dz2     :     0.006559  d :     0.052451
      dxz     :     0.011349
      dyz     :     0.014988
      dx2y2   :     0.004950
      dxy     :     0.014604

 12 C s       :     3.283532  s :     3.283532
      pz      :     0.913767  p :     2.869668
      px      :     0.890050
      py      :     1.065850
      dz2     :     0.012010  d :     0.068718
      dxz     :     0.017432
      dyz     :     0.014403
      dx2y2   :     0.009606
      dxy     :     0.015267

 13 C s       :     3.047296  s :     3.047296
      pz      :     0.990611  p :     2.841959
      px      :     0.832993
      py      :     1.018354
      dz2     :     0.010762  d :     0.069655
      dxz     :     0.016021
      dyz     :     0.014157
      dx2y2   :     0.014273
      dxy     :     0.014441

 14 C s       :     3.203199  s :     3.203199
      pz      :     0.928428  p :     2.714787
      px      :     0.920496
      py      :     0.865862
      dz2     :     0.012623  d :     0.061513
      dxz     :     0.009466
      dyz     :     0.015720
      dx2y2   :     0.012082
      dxy     :     0.011622

 15 C s       :     3.160163  s :     3.160163
      pz      :     0.969682  p :     2.699955
      px      :     0.903549
      py      :     0.826725
      dz2     :     0.018561  d :     0.083277
      dxz     :     0.010778
      dyz     :     0.022417
      dx2y2   :     0.012578
      dxy     :     0.018942

 16 C s       :     3.177940  s :     3.177940
      pz      :     0.879954  p :     2.816294
      px      :     1.000391
      py      :     0.935949
      dz2     :     0.013721  d :     0.063040
      dxz     :     0.010875
      dyz     :     0.018550
      dx2y2   :     0.009922
      dxy     :     0.009972

 17 C s       :     2.759938  s :     2.759938
      pz      :     1.240347  p :     3.415337
      px      :     1.080189
      py      :     1.094801
      dz2     :     0.008071  d :     0.040105
      dxz     :     0.006838
      dyz     :     0.011701
      dx2y2   :     0.005397
      dxy     :     0.008098

 18 C s       :     3.117672  s :     3.117672
      pz      :     0.846018  p :     2.726325
      px      :     0.969970
      py      :     0.910336
      dz2     :     0.012782  d :     0.062567
      dxz     :     0.006855
      dyz     :     0.019897
      dx2y2   :     0.009889
      dxy     :     0.013144

 19 C s       :     3.233969  s :     3.233969
      pz      :     0.861533  p :     2.877575
      px      :     1.012428
      py      :     1.003615
      dz2     :     0.011682  d :     0.065080
      dxz     :     0.019933
      dyz     :     0.011690
      dx2y2   :     0.013248
      dxy     :     0.008527

 20 C s       :     3.297287  s :     3.297287
      pz      :     0.754809  p :     2.475013
      px      :     0.827089
      py      :     0.893116
      dz2     :     0.010370  d :     0.049009
      dxz     :     0.007870
      dyz     :     0.012781
      dx2y2   :     0.008875
[...]
 95:   1369.45   0.017401   87.94  0.003965  (-0.031467  0.005531  0.054263)
 96:   1380.42   0.001357    6.86  0.000307  (-0.014418  0.000596  0.009928)
 97:   1382.35   0.001823    9.21  0.000412  (-0.008247 -0.018515  0.000909)
 98:   1392.91   0.002845   14.38  0.000637  (-0.009227 -0.019430  0.013214)
 99:   1399.09   0.006677   33.74  0.001489  ( 0.012809 -0.031379 -0.018455)
100:   1409.37   0.021430  108.30  0.004745  ( 0.010523  0.043753 -0.052154)
101:   1413.52   0.005205   26.30  0.001149  ( 0.000838  0.027013 -0.020462)
102:   1419.95   0.007573   38.27  0.001664  ( 0.005878 -0.033630 -0.022335)
103:   1423.83   0.000179    0.91  0.000039  (-0.000560  0.004945 -0.003808)
104:   1436.57   0.003896   19.69  0.000846  (-0.018941  0.015104 -0.016105)
105:   1443.60   0.012882   65.10  0.002785  ( 0.036151 -0.019944 -0.032866)
106:   1455.32   0.007337   37.08  0.001573  ( 0.010280  0.000429  0.038305)
107:   1457.01   0.003544   17.91  0.000759  (-0.023760 -0.003942 -0.013381)
108:   1478.16   0.000044    0.22  0.000009  (-0.002700 -0.000979 -0.000977)
109:   1485.65   0.000918    4.64  0.000193  (-0.012936  0.004995 -0.000694)
110:   1497.09   0.009547   48.25  0.001990  ( 0.015692 -0.039672  0.013038)
111:   1498.57   0.004234   21.40  0.000882  (-0.026495 -0.007669 -0.010997)
112:   1499.11   0.011827   59.77  0.002462  ( 0.021646 -0.041155 -0.017308)
113:   1505.45   0.002297   11.61  0.000476  (-0.010402  0.004723 -0.018589)
114:   1520.69   0.000911    4.60  0.000187  ( 0.003483 -0.001004 -0.013184)
115:   1539.91   0.006686   33.79  0.001355  (-0.007672 -0.030864  0.018531)
116:   1564.36   0.109175  551.73  0.021779  ( 0.021920  0.110567 -0.095253)
117:   1592.41   0.114064  576.43  0.022353  (-0.015853 -0.118364  0.089955)
118:   1657.13   0.001248    6.31  0.000235  (-0.006705  0.013683  0.001674)
119:   1708.41   0.109958  555.68  0.020085  (-0.013287  0.135670 -0.038759)
120:   1756.61   0.067754  342.40  0.012037  ( 0.054674 -0.057416 -0.075833)
121:   2965.72   0.006050   30.57  0.000637  (-0.001819 -0.024299  0.006547)
122:   2982.21   0.020744  104.83  0.002171  (-0.003111  0.039984  0.023713)
123:   2999.80   0.005136   25.96  0.000534  ( 0.003519 -0.021153  0.008630)
124:   3001.58   0.007304   36.91  0.000759  (-0.004660 -0.018550  0.019837)
125:   3027.25   0.003810   19.25  0.000393  ( 0.006799 -0.015839  0.009780)
126:   3048.75   0.004544   22.96  0.000465  (-0.017488 -0.008062 -0.009712)
127:   3051.21   0.000910    4.60  0.000093  (-0.007855 -0.003740 -0.004166)
128:   3055.17   0.004810   24.31  0.000491  (-0.014645 -0.002034 -0.016514)
129:   3059.97   0.004622   23.36  0.000471  ( 0.005217 -0.017367 -0.011941)
130:   3069.50   0.003488   17.63  0.000355  ( 0.016883  0.005790 -0.006005)
131:   3097.48   0.006301   31.84  0.000635  ( 0.014772 -0.013914 -0.014933)
132:   3098.54   0.000039    0.20  0.000004  (-0.001178  0.001549  0.000366)
133:   3155.24   0.000158    0.80  0.000016  ( 0.003029 -0.001746 -0.001834)
134:   3158.14   0.001110    5.61  0.000110  ( 0.004006 -0.009639 -0.000875)
135:   3178.91   0.001244    6.29  0.000122  ( 0.006314 -0.003895 -0.008190)
136:   3461.22   0.090650  458.11  0.008173  (-0.007550  0.077333  0.046213)
137:   3537.74   0.012378   62.55  0.001092  (-0.008952 -0.015973  0.027506)
138:   3636.37   0.011084   56.01  0.000951  (-0.006942  0.028032 -0.010826)
139:   3648.84   0.030433  153.80  0.002603  ( 0.016157  0.034089  0.034347)
140:   3709.41   0.002995   15.13  0.000252  ( 0.002901 -0.004778 -0.014855)

* The epsilon (eps) is given for a Dirac delta lineshape.
** The dipole moment derivative (T) already includes vibrational overlap.

The first frequency considered to be a vibration is 6
The total number of vibrations considered is 135


--------------------------
THERMOCHEMISTRY AT 298.15K
--------------------------

Temperature         ...   298.15 K
Pressure            ...     1.00 atm
Total Mass          ...   376.37 AMU
Quasi RRHO          ...     True
Cut-Off Frequency   ...     1.00 cm^-1

Throughout the following assumptions are being made:
  (1) The electronic state is orbitally nondegenerate
  (2) There are no thermally accessible electronically excited states
  (3) Hindered rotations indicated by low frequency modes are not
      treated as such but are treated as vibrations and this may
      cause some error
  (4) All equations used are the standard statistical mechanics
      equations for an ideal gas
  (5) All vibrations are strictly harmonic

freq.      27.99  E(vib)   ...       0.55 
freq.      35.15  E(vib)   ...       0.54 
freq.      55.55  E(vib)   ...       0.52 
freq.      65.44  E(vib)   ...       0.50 
freq.      83.65  E(vib)   ...       0.48 
freq.      94.99  E(vib)   ...       0.47 
freq.     108.11  E(vib)   ...       0.45 
freq.     117.08  E(vib)   ...       0.44 
freq.     119.13  E(vib)   ...       0.44 
freq.     136.99  E(vib)   ...       0.42 
freq.     151.32  E(vib)   ...       0.40 
freq.     159.24  E(vib)   ...       0.39 
freq.     168.11  E(vib)   ...       0.38 
freq.     171.89  E(vib)   ...       0.38 
freq.     186.77  E(vib)   ...       0.37 
freq.     199.51  E(vib)   ...       0.35 
freq.     219.97  E(vib)   ...       0.33 
freq.     247.89  E(vib)   ...       0.31 
freq.     261.07  E(vib)   ...       0.30 
freq.     282.06  E(vib)   ...       0.28 
freq.     289.67  E(vib)   ...       0.27 
freq.     297.51  E(vib)   ...       0.27 
freq.     304.70  E(vib)   ...       0.26 
freq.     330.15  E(vib)   ...       0.24 
freq.     333.38  E(vib)   ...       0.24 
freq.     361.79  E(vib)   ...       0.22 
freq.     381.97  E(vib)   ...       0.21 
freq.     386.44  E(vib)   ...       0.20 
freq.     397.99  E(vib)   ...       0.20 
freq.     422.05  E(vib)   ...       0.18 
freq.     429.82  E(vib)   ...       0.18 
freq.     444.59  E(vib)   ...       0.17 
freq.     464.91  E(vib)   ...       0.16 
freq.     496.27  E(vib)   ...       0.14 
freq.     506.04  E(vib)   ...       0.14 
freq.     530.77  E(vib)   ...       0.13 
freq.     545.56  E(vib)   ...       0.12 
freq.     561.73  E(vib)   ...       0.11 
freq.     572.40  E(vib)   ...       0.11 
freq.     586.06  E(vib)   ...       0.11 
freq.     600.94  E(vib)   ...       0.10 
freq.     605.66  E(vib)   ...       0.10 
freq.     619.57  E(vib)   ...       0.09 
freq.     633.22  E(vib)   ...       0.09 
freq.     655.88  E(vib)   ...       0.08 
freq.     666.72  E(vib)   ...       0.08 
freq.     669.31  E(vib)   ...       0.08 
freq.     677.77  E(vib)   ...       0.08 
freq.     718.14  E(vib)   ...       0.07 
freq.     741.18  E(vib)   ...       0.06 
freq.     750.43  E(vib)   ...       0.06 
freq.     763.55  E(vib)   ...       0.06 
freq.     778.40  E(vib)   ...       0.05 
freq.     786.34  E(vib)   ...       0.05 
freq.     828.11  E(vib)   ...       0.04 
freq.     836.35  E(vib)   ...       0.04 
freq.     840.56  E(vib)   ...       0.04 
freq.     867.13  E(vib)   ...       0.04 
freq.     874.23  E(vib)   ...       0.04 
freq.     875.63  E(vib)   ...       0.04 
freq.     927.76  E(vib)   ...       0.03 
freq.     990.44  E(vib)   ...       0.02 
freq.     998.68  E(vib)   ...       0.02 
freq.    1018.38  E(vib)   ...       0.02 
freq.    1031.32  E(vib)   ...       0.02 
freq.    1035.29  E(vib)   ...       0.02 
freq.    1037.13  E(vib)   ...       0.02 
freq.    1038.35  E(vib)   ...       0.02 
freq.    1045.56  E(vib)   ...       0.02 
freq.    1048.01  E(vib)   ...       0.02 
freq.    1059.98  E(vib)   ...       0.02 
freq.    1076.23  E(vib)   ...       0.02 
freq.    1110.04  E(vib)   ...       0.02 
freq.    1115.70  E(vib)   ...       0.01 
freq.    1147.90  E(vib)   ...       0.01 
freq.    1164.30  E(vib)   ...       0.01 
freq.    1188.58  E(vib)   ...       0.01 
freq.    1212.27  E(vib)   ...       0.01 
freq.    1229.52  E(vib)   ...       0.01 
freq.    1245.60  E(vib)   ...       0.01 
freq.    1257.24  E(vib)   ...       0.01 
freq.    1265.12  E(vib)   ...       0.01 
freq.    1289.36  E(vib)   ...       0.01 
freq.    1308.29  E(vib)   ...       0.01 
freq.    1314.92  E(vib)   ...       0.01 
freq.    1319.08  E(vib)   ...       0.01 
freq.    1334.11  E(vib)   ...       0.01 
freq.    1341.34  E(vib)   ...       0.01 
freq.    1359.08  E(vib)   ...       0.01 
freq.    1369.45  E(vib)   ...       0.01 
freq.    1380.42  E(vib)   ...       0.01 
freq.    1382.35  E(vib)   ...       0.01 
freq.    1392.91  E(vib)   ...       0.00 
freq.    1399.09  E(vib)   ...       0.00 
freq.    1409.37  E(vib)   ...       0.00 
freq.    1413.52  E(vib)   ...       0.00 
freq.    1419.95  E(vib)   ...       0.00 
freq.    1423.83  E(vib)   ...       0.00 
freq.    1436.57  E(vib)   ...       0.00 
freq.    1443.60  E(vib)   ...       0.00 
freq.    1455.32  E(vib)   ...       0.00 
freq.    1457.01  E(vib)   ...       0.00 
freq.    1478.16  E(vib)   ...       0.00 
freq.    1485.65  E(vib)   ...       0.00 
freq.    1497.09  E(vib)   ...       0.00 
freq.    1498.57  E(vib)   ...       0.00 
freq.    1499.11  E(vib)   ...       0.00 
freq.    1505.45  E(vib)   ...       0.00 
freq.    1520.69  E(vib)   ...       0.00 
freq.    1539.91  E(vib)   ...       0.00 
freq.    1564.36  E(vib)   ...       0.00 
freq.    1592.41  E(vib)   ...       0.00 
freq.    1657.13  E(vib)   ...       0.00 
freq.    1708.41  E(vib)   ...       0.00 
freq.    1756.61  E(vib)   ...       0.00 
freq.    2965.72  E(vib)   ...       0.00 
freq.    2982.21  E(vib)   ...       0.00 
freq.    2999.80  E(vib)   ...       0.00 
freq.    3001.58  E(vib)   ...       0.00 
freq.    3027.25  E(vib)   ...       0.00 
freq.    3048.75  E(vib)   ...       0.00 
freq.    3051.21  E(vib)   ...       0.00 
freq.    3055.17  E(vib)   ...       0.00 
freq.    3059.97  E(vib)   ...       0.00 
freq.    3069.50  E(vib)   ...       0.00 
freq.    3097.48  E(vib)   ...       0.00 
freq.    3098.54  E(vib)   ...       0.00 
freq.    3155.24  E(vib)   ...       0.00 
freq.    3158.14  E(vib)   ...       0.00 
freq.    3178.91  E(vib)   ...       0.00 
freq.    3461.22  E(vib)   ...       0.00 
freq.    3537.74  E(vib)   ...       0.00 
freq.    3636.37  E(vib)   ...       0.00 
freq.    3648.84  E(vib)   ...       0.00 
freq.    3709.41  E(vib)   ...       0.00 

------------
INNER ENERGY
------------

The inner energy is: U= E(el) + E(ZPE) + E(vib) + E(rot) + E(trans)
    E(el)   - is the total energy from the electronic structure calculation
              = E(kin-el) + E(nuc-el) + E(el-el) + E(nuc-nuc)
    E(ZPE)  - the the zero temperature vibrational energy from the frequency calculation
    E(vib)  - the the finite temperature correction to E(ZPE) due to population
              of excited vibrational states
    E(rot)  - is the rotational thermal energy
    E(trans)- is the translational thermal energy

Summary of contributions to the inner energy U:
Electronic energy                ...  -1329.66445787 Eh
Zero point energy                ...      0.37012113 Eh     232.25 kcal/mol
Thermal vibrational correction   ...      0.02188879 Eh      13.74 kcal/mol
Thermal rotational correction    ...      0.00141627 Eh       0.89 kcal/mol
Thermal translational correction ...      0.00141627 Eh       0.89 kcal/mol
-----------------------------------------------------------------------
Total thermal energy                  -1329.26961540 Eh


Summary of corrections to the electronic energy:
(perhaps to be used in another calculation)
Total thermal correction                  0.02472133 Eh      15.51 kcal/mol
Non-thermal (ZPE) correction              0.37012113 Eh     232.25 kcal/mol
-----------------------------------------------------------------------
Total correction                          0.39484246 Eh     247.77 kcal/mol


--------
ENTHALPY
--------

The enthalpy is H = U + kB*T
                kB is Boltzmann's constant
Total thermal energy              ...  -1329.26961540 Eh 
Thermal Enthalpy correction       ...      0.00094421 Eh       0.59 kcal/mol
-----------------------------------------------------------------------
Total Enthalpy                    ...  -1329.26867120 Eh


Note: Only C1 symmetry has been detected, increase convergence thresholds 
      if your molecule has a higher symmetry. Symmetry factor of 1.0 is   
      used for the rotational entropy correction. 
 

Note: Rotational entropy computed according to Herzberg 
Infrared and Raman Spectra, Chapter V,1, Van Nostrand Reinhold, 1945 
Point Group:  C1, Symmetry Number:   1  
Rotational constants in cm-1:     0.008701     0.005249     0.003662 

Vibrational entropy computed according to the QRRHO of S. Grimme
Chem.Eur.J. 2012 18 9955 using a reference frequency of 100.0 cm-1


-------
ENTROPY
-------

The entropy contributions are T*S = T*(S(el)+S(vib)+S(rot)+S(trans))
     S(el)   - electronic entropy
     S(vib)  - vibrational entropy
     S(rot)  - rotational entropy
     S(trans)- translational entropy
The entropies will be listed as multiplied by the temperature to get
units of energy

Electronic entropy                ...      0.00000000 Eh      0.00 kcal/mol
Vibrational entropy               ...      0.03821166 Eh     23.98 kcal/mol
Rotational entropy                ...      0.01687717 Eh     10.59 kcal/mol
Translational entropy             ...      0.02074837 Eh     13.02 kcal/mol
-----------------------------------------------------------------------
Final entropy term                ...      0.07583720 Eh     47.59 kcal/mol

In case the symmetry of your molecule has not been determined correctly
or in case you have a reason to use a different symmetry number we print 
out the resulting rotational entropy values for sn=1,12:

 non-linear molecules -----------------------------------
|  sn= 1 | S(rot)=       0.01687717 Eh     10.59 kcal/mol|
|  sn= 2 | S(rot)=       0.01622272 Eh     10.18 kcal/mol|
|  sn= 3 | S(rot)=       0.01583988 Eh      9.94 kcal/mol|
|  sn= 4 | S(rot)=       0.01556826 Eh      9.77 kcal/mol|
|  sn= 5 | S(rot)=       0.01535757 Eh      9.64 kcal/mol|
|  sn= 6 | S(rot)=       0.01518543 Eh      9.53 kcal/mol|
|  sn= 7 | S(rot)=       0.01503988 Eh      9.44 kcal/mol|
|  sn= 8 | S(rot)=       0.01491380 Eh      9.36 kcal/mol|
|  sn= 9 | S(rot)=       0.01480260 Eh      9.29 kcal/mol|
|  sn=10 | S(rot)=       0.01470312 Eh      9.23 kcal/mol|
|  sn=11 | S(rot)=       0.01461313 Eh      9.17 kcal/mol|
|  sn=12 | S(rot)=       0.01453097 Eh      9.12 kcal/mol|
 linear molecules ---------------------------------------
|  Dinfh | S(rot)=       0.01062230 Eh      6.67 kcal/mol|
|  Cinfv | S(rot)=       0.01127676 Eh      7.08 kcal/mol|
 --------------------------------------------------------


-------------------
GIBBS FREE ENERGY
-------------------

The Gibbs free energy is G = H - T*S

Total enthalpy                    ...  -1329.26867120 Eh 
Total entropy correction          ...     -0.07583720 Eh    -47.59 kcal/mol
-----------------------------------------------------------------------
Final Gibbs free energy         ...  -1329.34450839 Eh

For completeness - the Gibbs free energy minus the electronic energy
G-E(el)                           ...      0.31994947 Eh    200.77 kcal/mol


Maximum memory used throughout the entire PROP-calculation: 169.1 MB

--------------------------------
SUGGESTED CITATIONS FOR THIS RUN
--------------------------------

Below you find a list of papers that are relevant to this ORCA run
We neither can nor want to force you to cite these papers, but we appreciate if you do
You receive ORCA, which is the product of decades of hard work by many enthusiastic individuals, for free
The only thing we kindly ask in return is that you cite our papers,
We deeply appreciate it, if you show your appreciation for ORCA by not just citing the generic ORCA reference.

Please note that relegating all ORCA citations to the supporting information does *not* help us.
SI sections are not indexed - citations you put there will not count into any citation statistics
But we need these citations in order to attract the funding resources that allow us to do what we are doing

Therefore, if you are a happy ORCA user, please consider citing a few of the papers listed below in the main body of your paper

In addition to the list printed below, the program has created the file m1_00_Vitamin_B2-GFN1_0000-B97-3C-TZ.bibtex that contains the list in bibtex format
You can import this file easily into all common literature databanks and citation aid programs


List of essential papers. We consider these as the minimum necessary citations

  1. Neese,F.
     Software update: the ORCA program system, version 5.0
     WIRES Comput. Molec. Sci., 2022 12(1)e1606
     doi.org/10.1002/wcms.1606

List of papers to cite with high priority. The work reported in these papers was absolutely
necessary for this run to complete.
Our perspective: the developers of density functionals and basis sets usually get cited in chemistry papers
Good! But without the algorithms to do something with them, the functionals or basis sets would not do anything.
Hence, in our opinion, the algorithm design and method developments papers are equally worthy of getting cited

  1. Neese,F.
     An improvement of the resolution of the identity approximation for the formation of the Coulomb matrix
     J. Comp. Chem., 2003 24(14)1740-1747
     doi.org/10.1002/jcc.10318
  2. Bykov,D.; Petrenko,T.; Izsak,R.; Kossmann,S.; Becker,U.; Valeev,E.; Neese,F.
     Efficient implementation of the analytic second derivatives of Hartree-Fock and hybrid DFT energies: a detailed analysis of different approximations
     Molec. Phys., 2015 113 1961-1977
     doi.org/10.1080/00268976.2015.1025114
  3. Neese,F.
     The SHARK Integral Generation and Digestion System
     J. Comp. Chem., 2022  1-16
     doi.org/10.1002/jcc.26942
  4. Grimme,S.; Antony,J.; Ehrlich,S.; Krieg,H.
     A consistent and accurate ab initio parametrization of density functional dispersion correction (DFT-D) for the 94 elements H-Pu
     J. Chem. Phys., 2010 132 154104
     doi.org/10.1063/1.3382344
  5. Grimme,S.; Ehrlich,S.; Goerigk,L.
     Effect of the damping function in dispersion corrected density functional theory
     J. Comput. Chem., 2011 32(7)1456-1465
     doi.org/10.1002/jcc.21759

List of suggested additional citations. These are papers that are important in the 'surrounding' of 
of this run, or papers that preceded the highly important papers. If you like your results we are grateful for a citation.

  1. Neese,F.
     The ORCA program system
     WIRES Comput. Molec. Sci., 2012 2(1)73-78
     doi.org/10.1002/wcms.81
  2. Neese,F.
     Software update: the ORCA program system, version 4.0
     WIRES Comput. Molec. Sci., 2018 8(1)1-6
     doi.org/10.1002/wcms.1327
  3. Neese,F.; Wennmohs,F.; Becker,U.; Riplinger,C.
     The ORCA quantum chemistry program package
     J. Chem. Phys., 2020 152 Art. No. L224108
     doi.org/10.1063/5.0004608

List of optional additional citations

  1. Neese,F.
     Approximate second-order SCF convergence for spin unrestricted wavefunctions
     Chem. Phys. Lett., 2000 325(1-3)93-98
     doi.org/10.1016/s0009-2614(00)00662-x

Timings for individual modules:

Sum of individual times          ...      885.068 sec (=  14.751 min)
Startup calculation              ...       52.669 sec (=   0.878 min)   6.0 %
SCF iterations                   ...      162.499 sec (=   2.708 min)  18.4 %
Property integrals               ...      209.108 sec (=   3.485 min)  23.6 %
SCF Response                     ...      301.637 sec (=   5.027 min)  34.1 %
Property calculations            ...       78.195 sec (=   1.303 min)   8.8 %
SCF Gradient evaluation          ...       80.815 sec (=   1.347 min)   9.1 %
Geometry relaxation              ...        0.145 sec (=   0.002 min)   0.0 %
                             ****ORCA TERMINATED NORMALLY****
TOTAL RUN TIME: 0 days 0 hours 14 minutes 47 seconds 402 msec
