
                                 *****************
                                 * O   R   C   A *
                                 *****************

                                            #,                                       
                                            ###                                      
                                            ####                                     
                                            #####                                    
                                            ######                                   
                                           ########,                                 
                                     ,,################,,,,,                         
                               ,,#################################,,                 
                          ,,##########################################,,             
                       ,#########################################, ''#####,          
                    ,#############################################,,   '####,        
                  ,##################################################,,,,####,       
                ,###########''''           ''''###############################       
              ,#####''   ,,,,##########,,,,          '''####'''          '####       
            ,##' ,,,,###########################,,,                        '##       
           ' ,,###''''                  '''############,,,                           
         ,,##''                                '''############,,,,        ,,,,,,###''
      ,#''                                            '''#######################'''  
     '                                                          ''''####''''         
             ,#######,   #######,   ,#######,      ##                                
            ,#'     '#,  ##    ##  ,#'     '#,    #''#        ,####,   ,####,        
            ##       ##  ##   ,#'  ##            #'  '#       #'       #'  '#        
            ##       ##  #######   ##           ,######,      #####,   #    #        
            '#,     ,#'  ##    ##  '#,     ,#' ,#      #,     #,   #   #,  ,#        
             '#######'   ##     ##  '#######'  #'      '#     '####' # '####'        



                #########################################################
                #                        -***-                          #
                #          Department of theory and spectroscopy        #
                #                                                       #
                #                      Frank Neese                      #
                #                                                       #
                #     Directorship, Architecture, Infrastructure        #
                #                    SHARK, DRIVERS                     #
                #        Core code/Algorithms in most modules           #
                #                                                       #
                #        Max Planck Institute fuer Kohlenforschung      #
                #                Kaiser Wilhelm Platz 1                 #
                #                 D-45470 Muelheim/Ruhr                 #
                #                      Germany                          #
                #                                                       #
                #                  All rights reserved                  #
                #                        -***-                          #
                #########################################################


                         Program Version 6.0.1  -  RELEASE   -


 With contributions from (in alphabetic order):
[Max-Planck-Institut fuer Kohlenforschung]                               
  Daniel Aravena         : Magnetic Suceptibility                        
  Michael Atanasov       : Ab Initio Ligand Field Theory (pilot matlab implementation)
  Alexander A. Auer      : GIAO ZORA, VPT2 properties, NMR spectrum      
  Ute Becker             : All parallelization in ORCA, NUMFREQ, NUMCALC 
  Giovanni Bistoni       : ED, misc. LED, open-shell LED, HFLD           
  Martin Brehm           : Molecular dynamics                            
  Dmytro Bykov           : pre 5.0 version of the SCF Hessian            
  Marcos Casanova-Páez   : Triplet and SCS-CIS(D). UHF-(DLPNO)-IP/EA/STEOM-CCSD. UHF-CVS-IP/STEOM-CCSD   
  Vijay G. Chilkuri      : MRCI spin determinant printing, contributions to CSF-ICE 
  Pauline Colinet        : FMM embedding                                 
  Dipayan Datta          : RHF DLPNO-CCSD density                        
  Achintya Kumar Dutta   : EOM-CC, STEOM-CC                              
  Nicolas Foglia         : Exact transition moments, OPA infrastructure, MCD improvements    
  Dmitry Ganyushin       : Spin-Orbit,Spin-Spin,Magnetic field MRCI      
  Miquel Garcia-Rates    : C-PCM and meta-GGA Hessian, CCSD/C-PCM, Gaussian charge scheme 
  Tiago L. C. Gouveia    : GS-ROHF, GS-ROCIS                             
  Yang Guo               : DLPNO-NEVPT2, F12-NEVPT2, CIM, IAO-localization        
  Andreas Hansen         : Spin unrestricted coupled pair/coupled cluster methods 
  Ingolf Harden          : AUTO-CI MPn and infrastructure                
  Benjamin Helmich-Paris : MC-RPA, TRAH-(SCF,CASSCF), AVAS, COSX integrals, SCF dyn. polar. 
  Lee Huntington         : MR-EOM, pCC                                   
  Robert Izsak           : Overlap fitted RIJCOSX, COSX-SCS-MP3, EOM     
  Riya Kayal             : Wick's Theorem for AUTO-CI, AUTO-CI UHF-CCSDT 
  Emily Kempfer          : AUTO-CI, RHF CISDT and CCSDT                  
  Christian Kollmar      : KDIIS, OOCD, Brueckner-CCSD(T), CCSD density, CASPT2, CASPT2-K, improved NEVPT2 
  Axel Koslowski         : Symmetry handling                             
  Simone Kossmann        : meta-GGA functionals, TD-DFT gradient, OOMP2, (MP2 Hessian; deprecated post 5.0) 
  Lucas Lang             : DCDCAS                                        
  Marvin Lechner         : AUTO-CI (C++ implementation), FIC-MRCC        
  Spencer Leger          : CASSCF response                               
  Dagmar Lenk            : GEPOL surface, SMD, ORCA-2-JSON               
  Dimitrios Liakos       : Extrapolation schemes; Compound Job, initial MDCI parallelization 
  Dimitrios Manganas     : Further ROCIS development; embedding schemes. LFT, Crystal Embedding 
  Dimitrios Pantazis     : SARC Basis sets                               
  Anastasios Papadopoulos: AUTO-CI, single reference methods and gradients 
  Taras Petrenko         : pre 6.0 DFT Hessian and TD-DFT gradient, (ASA, deprecated), ECA, 1-Electron XAS/XES, NRVS 
  Peter Pinski           : DLPNO-MP2, DLPNO-MP2 Gradient                 
  Christoph Reimann      : Effective Core Potentials                     
  Marius Retegan         : Local ZFS, SOC                                
  Christoph Riplinger    : Optimizer, TS searches, QM/MM, DLPNO-CCSD(T), (RO)-DLPNO pert. Triples 
  Michael Roemelt        : Original ROCIS implementation                 
  Masaaki Saitow         : Open-shell DLPNO-CCSD energy and density      
  Barbara Sandhoefer     : DKH picture change effects                    
  Kantharuban Sivalingam : CASSCF convergence/infrastructure, NEVPT2 and variants, FIC-MRCI 
  Bernardo de Souza      : ESD, SOC TD-DFT                               
  Georgi L. Stoychev     : AutoAux, RI-MP2 NMR, DLPNO-MP2 response, X2C  
  Van Anh Tran           : RI-MP2 g-tensors                              
  Willem Van den Heuvel  : Paramagnetic NMR                              
  Zikuan Wang            : NOTCH, Electric field optimization            
  Frank Wennmohs         : Technical directorship and infrastructure     
  Hang Xu                : AUTO-CI-Response properties                   
                                                                         
[FACCTs GmbH]                                                            
  Markus Bursch, Miquel Garcia-Rates, Christoph Riplinger, Bernardo de Souza, Georgi L. Stoychev 
                                                                 
  APM, Basis sets (HGBS, AHGBS, def-TZVP (Ac-Lr), def2-XVPD (La-Lu)), CI-OPT, improved COSX, DLPNO-Multilevel,           
  DOCKER, DRACO, updates on ESD, GOAT, IRC, LR-CPCM, MBIS, meta-GGA TD-DFT gradient, ML-optimized integration grids, 
  MM, NACMEs, nearIR, NEB, NEB-TS, NL-DFT gradient (VV10), 2- and 3-layer-ONIOM, interface openCOSMO-RS, QMMM,   
  Crystal-QMMM, SF, symmetry and pop. for TD-DFT, r2SCAN hybrids, SOLVATOR                                   
                                                                         
[Other institutions]                                                     
  V. Asgeirsson          : NEB                                           
  Christoph Bannwarth    : sTDA-DFT, sTD-DFT, PBEh-3c, B97-3c, D3        
  Sebastian Ehlert       : rSCAN, r2SCAN, r2SCAN-3c, D4, dhf basis sets  
  Marvin Friede          : D4 for Fr, Ra, Ac-Lr                          
  Lars Goerigk           : TD-DFT with DH, B97 family of functionals     
  Stefan Grimme          : VdW corrections, initial TS optimization, DFT functionals, gCP, sTDA/sTD-DF 
  Waldemar Hujo          : DFT-NL                                        
  H. Jonsson             : NEB                                           
  Holger Kruse           : gCP                                           
  Marcel Mueller         : wB97X-3c, vDZP basis set                      
  Hagen Neugebauer       : wr2SCAN                                       
  Tobias Risthaus        : range-separated hybrid DFT                    
  Lukas Wittmann         : regularized MP2, r2SCAN double-hybrids, wr2SCAN        
                                                                         
We gratefully acknowledge several colleagues who have allowed us to      
interface, adapt or use parts of their codes:                            
  Ed Valeev, F. Pavosevic, A. Kumar             : LibInt (2-el integral package), F12 methods 
  Garnet Chan, S. Sharma, J. Yang, R. Olivares  : DMRG                   
  Ulf Ekstrom                                   : XCFun DFT Library      
  Mihaly Kallay                                 : mrcc  (arbitrary order and MRCC methods)
  Frank Weinhold                                : gennbo (NPA and NBO analysis)           
  Simon Mueller                                 : openCOSMO-RS                            
  Christopher J. Cramer and Donald G. Truhlar   : smd solvation model                     
  S Lehtola, MJT Oliveira, MAL Marques          : LibXC Library                           
  Liviu Ungur et al                             : ANISO software                          


 Your calculation uses the libint2 library for the computation of 2-el integrals
 For citations please refer to: http://libint.valeyev.net

 Your ORCA version has been built with support for libXC version: 6.2.2
 For citations please refer to: https://libxc.gitlab.io

 This ORCA versions uses:
   CBLAS   interface :  Fast vector & matrix operations
   LAPACKE interface :  Fast linear algebra routines
   SCALAPACK package :  Parallel linear algebra routines
   Shared memory     :  Shared parallel matrices
   BLAS/LAPACK       :  OpenBLAS 0.3.27  USE64BITINT DYNAMIC_ARCH NO_AFFINITY Zen SINGLE_THREADED
        Core in use  :  Zen
   Copyright (c) 2011-2014, The OpenBLAS Project


NOTE: MaxCore=6000 MB was set to SCF,MP2,MDCI,CIPSI,MRCI and CIS
      => If you want to overwrite this, your respective input block should be placed after the MaxCore statement
Your calculation utilizes the atom-pairwise dispersion correction
with the Becke-Johnson damping scheme (D3BJ)


Your calculation employs the composite approach B97-3c by Grimme and coworkers.
For the correct reference, please check the publication list of the Grimme group:
http://www.thch.uni-bonn.de/tc/index.php?section=publikationen&subsection=grimme#2017
   

XCFun DFT library Copyright 2009-2010 Ulf Ekstrom and contributors.
See http://admol.org/xcfun for more information.
This is free software; see the source code for copying conditions.
There is ABSOLUTELY NO WARRANTY; not even for MERCHANTABILITY or FITNESS FOR A PARTICULAR PURPOSE.
For details see the documentation.
Scientific users of this library should cite U. Ekstrom, L. Visscher, R. Bast, A. J. Thorvaldsen and K. Ruud;
J.Chem.Theor.Comp. 2010, DOI: 10.1021/ct100117s
XCFun Version 0.99 

================================================================================

----- Orbital basis set information -----
Your calculation utilizes the basis: def2-mTZVP
----- AuxJ basis set information -----
Your calculation utilizes the basis: def2-mTZVP/J
================================================================================
                                        WARNINGS
                       Please study these warnings very carefully!
================================================================================


WARNING: Geometry Optimization
  ===> : Switching off AutoStart
         For restart on a previous wavefunction, please use MOREAD

================================================================================
                                       INPUT FILE
================================================================================
NAME = m1_00_Vitamin_B2-GFN1_0008-B97-3C-TZ.inp
|  1> %pal nprocs 16 end
|  2> %MaxCore 6000
|  3> # put your comments here
|  4> ! B97-3C  OPT  FREQ DEFGRID3 NOTRAH
|  5> %scf MaxIter 800 end
|  6> %output
|  7> Print [P_Hirshfeld] 1
|  8> end
|  9> %geom
| 10> MaxIter 3000
| 11>  TolE 1e-6 #TolE 5e-6 Energy change (a.u.)
| 12>  TolRMSG 3e-5 #TolRMSG 1e-4 RMS gradient (a.u.)
| 13>  TolMaxG 1e-4 #TolMaxG 3e-3 Max. element of gradient (a.u.)
| 14>  TolRMSD 2e-3 #TolRMSD 2e-3 RMS displacement (a.u.)
| 15>  TolMaxD 4e-3 #TolMaxD 4e-3 Max. displacement (a.u.)
| 16> end
| 17> * xyz 0 1
| 18>  O 1.39995043601892 -2.21424745129479 -3.74093688926343
| 19>  O -0.94761310000162 -0.52172068958449 -1.50856697370524
| 20>  O 2.31051145517519 -2.02582776532060 -1.11599612848455
| 21>  O 0.24781065339124 -1.82899887643761 0.93605644007212
| 22>  O -4.19651261686834 -6.22294111846292 -2.09194917184801
| 23>  O -3.79285948648811 -2.03955589364510 -0.45560378806700
| 24>  N -1.28153858691222 -3.02693818497367 -4.13418444347450
| 25>  N -2.21378644137661 -5.65064500772368 -4.01228428932368
| 26>  N -2.60784736437861 -2.47629686627115 -2.33901934313201
| 27>  N -4.02999503827272 -4.09460736834675 -1.35993257773406
| 28>  C 0.38115237362058 -1.31553517523801 -3.37374657823960
| 29>  C -0.87596824927335 -1.62148309254807 -4.21275075877560
| 30>  C 0.09997491615318 -1.39144829376896 -1.85399699686567
| 31>  C 1.35164933803778 -0.98299456030907 -1.04481195326107
| 32>  C -0.76353664363012 -3.97051510172339 -4.99077044490360
| 33>  C -2.19510054757449 -3.38787606956937 -3.18752237800901
| 34>  C -1.25924656656789 -5.29522709929603 -4.90881016964344
| 35>  C 0.22569223346858 -3.68792427240016 -5.94331851920538
| 36>  C -2.65646087729071 -4.74966414201962 -3.18423829128713
| 37>  C 0.97132442478844 -0.72972593365050 0.42527218970169
| 38>  C 0.71015282672469 -4.67088214555710 -6.78441788081423
| 39>  C -0.76078410810963 -6.28304576755154 -5.77749476710083
| 40>  C 0.20896689573412 -5.99200505481473 -6.70821695144539
| 41>  C -3.69129322753693 -5.13108308138676 -2.19115510889287
| 42>  C 1.78291211938027 -4.32810434714717 -7.77782968366125
| 43>  C 0.73280311181166 -7.06238507125391 -7.62422308905505
| 44>  C -3.48742862613124 -2.80578026359790 -1.33915447530713
| 45>  H 0.66804681338390 -0.27569817816656 -3.62151699152248
| 46>  H -1.70791984676301 -1.01122342810158 -3.85360781771463
| 47>  H -0.68880565519205 -1.37491329382732 -5.25899999694817
| 48>  H -0.14956287931968 -2.43344272542667 -1.58919051113045
| 49>  H 1.81573452550321 -0.08413995589973 -1.47340402035767
| 50>  H 0.65055136061330 -2.69548528017103 -6.00963471791004
| 51>  H 1.88993847566919 -0.63633199238206 1.01547887048028
| 52>  H 0.39340668390097 0.20053384634271 0.50932895902177
| 53>  H -1.16585928681465 -7.28389488159693 -5.68318332973439
| 54>  H 2.03848349474698 -2.29339400313877 -3.00721911220185
| 55>  H -1.79974278357558 -1.00670506082362 -1.63846590466733
| 56>  H 2.03888482032508 -2.71594350854391 -0.49086269141261
| 57>  H 2.05946078733902 -3.27681272623233 -7.70591177701109
| 58>  H 2.67248265758525 -4.93504438846202 -7.59981795648855
| 59>  H 1.43940259132393 -4.52993656621103 -8.79409040950589
| 60>  H 0.23504760778996 -8.01204631819889 -7.43078724067347
| 61>  H 0.56635519995475 -6.78835706997601 -8.66762655049215
| 62>  H 1.80643887473370 -7.19684243378208 -7.48014325743944
| 63>  H -4.69498049007384 -4.29606739770933 -0.62553010500759
| 64>  H -0.67979525502041 -1.74145494380830 0.66974158243250
| 65> *
| 66> 
| 67> 
| 68> 
| 69> 
| 70>                          ****END OF INPUT****
================================================================================

                       *****************************
                       * Geometry Optimization Run *
                       *****************************

Geometry optimization settings:
Update method            Update   .... BFGS
Choice of coordinates    CoordSys .... (2022) Redundant Internals
Initial Hessian          InHess   .... Almloef's Model
Max. no of cycles        MaxIter  .... 3000

Convergence Tolerances:
Energy Change            TolE     ....  1.0000e-06 Eh
Max. Gradient            TolMAXG  ....  1.0000e-04 Eh/bohr
RMS Gradient             TolRMSG  ....  3.0000e-05 Eh/bohr
Max. Displacement        TolMAXD  ....  4.0000e-03 bohr
RMS Displacement         TolRMSD  ....  2.0000e-03 bohr
Strict Convergence                .... False

------------------------------------------------------------------------------
                        ORCA OPTIMIZATION COORDINATE SETUP
------------------------------------------------------------------------------

The optimization will be done in redundant internal coordinates (2022)
Making redundant internal coordinates   ...  (2022 redundants) done
Evaluating the initial hessian          ...  (Almloef) done
Evaluating the coordinates              ...  done
Calculating the B-matrix                .... done
Calculating the G-matrix                .... done
Diagonalizing the G-matrix              .... done
Small eigenvalue found = 3.983e-03
Small eigenvalue found = 5.221e-03
Small eigenvalue found = 8.203e-03
Small eigenvalue found = 1.631e-02
Small eigenvalue found = 2.179e-02
The first mode is                       ....  107
The number of degrees of freedom        ....  135

    -----------------------------------------------------------------
                    Redundant Internal Coordinates


    -----------------------------------------------------------------
         Definition                    Initial Value    Approx d2E/dq
    -----------------------------------------------------------------
      1. B(C  10,O   0)                  1.4073         0.525161   
      2. B(C  11,C  10)                  1.5420         0.357413   
      3. B(C  11,N   6)                  1.4649         0.424972   
      4. B(C  12,O   1)                  1.4047         0.530174   
      5. B(C  12,C  10)                  1.5474         0.350436   
      6. B(C  13,C  12)                  1.5454         0.353009   
      7. B(C  13,O   2)                  1.4184         0.504074   
      8. B(C  14,N   6)                  1.3756         0.589896   
      9. B(C  15,N   8)                  1.3120         0.745332   
     10. B(C  15,N   6)                  1.3642         0.615231   
     11. B(C  16,N   7)                  1.3569         0.631910   
     12. B(C  16,C  14)                  1.4168         0.566225   
     13. B(C  17,C  14)                  1.4021         0.597714   
     14. B(C  18,C  15)                  1.4378         0.524134   
     15. B(C  18,N   7)                  1.3013         0.775153   
     16. B(C  19,C  13)                  1.5395         0.360814   
     17. B(C  19,O   3)                  1.4117         0.516802   
     18. B(C  20,C  17)                  1.3814         0.644773   
     19. B(C  21,C  16)                  1.4067         0.587573   
     20. B(C  22,C  21)                  1.3753         0.659539   
     21. B(C  22,C  20)                  1.4150         0.569871   
     22. B(C  23,C  18)                  1.4841         0.442178   
     23. B(C  23,N   9)                  1.3711         0.599818   
     24. B(C  23,O   4)                  1.2072         1.095419   
     25. B(C  24,C  20)                  1.5017         0.414466   
     26. B(C  25,C  22)                  1.5031         0.412440   
     27. B(C  26,N   9)                  1.3985         0.542334   
     28. B(C  26,N   8)                  1.3718         0.598197   
     29. B(C  26,O   5)                  1.2087         1.089096   
     30. B(H  27,C  10)                  1.1068         0.338574   
     31. B(H  28,C  11)                  1.0925         0.356815   
     32. B(H  29,C  11)                  1.0911         0.358669   
     33. B(H  30,C  12)                  1.1037         0.342431   
     34. B(H  31,C  13)                  1.0986         0.348852   
     35. B(H  32,C  17)                  1.0816         0.371398   
     36. B(H  33,C  19)                  1.0959         0.352425   
     37. B(H  34,C  19)                  1.0984         0.349184   
     38. B(H  35,C  21)                  1.0838         0.368360   
     39. B(H  36,O   2)                  1.9293         0.014773   
     40. B(H  36,O   0)                  0.9759         0.490502   
     41. B(H  37,N   8)                  1.8176         0.022274   
     42. B(H  37,O   1)                  0.9890         0.467335   
     43. B(H  38,O   2)                  0.9700         0.501266   
     44. B(H  39,C  24)                  1.0894         0.360850   
     45. B(H  40,C  24)                  1.0915         0.358104   
     46. B(H  41,C  24)                  1.0916         0.358032   
     47. B(H  42,C  25)                  1.0895         0.360747   
     48. B(H  43,C  25)                  1.0916         0.358052   
     49. B(H  44,C  25)                  1.0916         0.358025   
     50. B(H  45,N   9)                  1.0110         0.431107   
     51. B(H  46,O   3)                  0.9690         0.502971   
     52. A(C  10,O   0,H  36)          109.2268         0.356199   
     53. A(C  12,O   1,H  37)          107.8563         0.353858   
     54. A(C  13,O   2,H  38)          107.5437         0.355036   
     55. A(C  19,O   3,H  46)          108.7127         0.356747   
     56. A(C  14,N   6,C  15)          120.1843         0.424022   
     57. A(C  11,N   6,C  14)          121.3611         0.397110   
     58. A(C  11,N   6,C  15)          118.4544         0.400057   
     59. A(C  16,N   7,C  18)          118.5791         0.447550   
     60. A(C  15,N   8,C  26)          120.4113         0.439997   
     61. A(C  23,N   9,H  45)          116.8866         0.356432   
     62. A(C  23,N   9,C  26)          127.5762         0.415826   
     63. A(C  26,N   9,H  45)          115.3419         0.350403   
     64. A(C  11,C  10,H  27)          106.0170         0.318747   
     65. A(O   0,C  10,H  27)          110.7272         0.337592   
     66. A(O   0,C  10,C  11)          108.7546         0.379971   
     67. A(C  12,C  10,H  27)          108.2436         0.317724   
     68. A(C  11,C  10,C  12)          112.1167         0.356716   
     69. A(O   0,C  10,C  12)          110.8839         0.378676   
     70. A(C  10,C  11,H  28)          109.3370         0.321492   
     71. A(N   6,C  11,H  29)          108.4051         0.329075   
     72. A(C  10,C  11,H  29)          109.6972         0.321765   
     73. A(N   6,C  11,H  28)          107.9062         0.328794   
     74. A(H  28,C  11,H  29)          108.6401         0.290240   
     75. A(N   6,C  11,C  10)          112.7601         0.366359   
     76. A(C  13,C  12,H  30)          107.8796         0.318692   
     77. A(O   1,C  12,C  13)          108.1569         0.379781   
     78. A(C  10,C  12,H  30)          108.8467         0.318312   
     79. A(O   1,C  12,H  30)          110.9116         0.338767   
     80. A(O   1,C  12,C  10)          110.2828         0.379300   
     81. A(C  10,C  12,C  13)          110.7388         0.355966   
     82. A(O   2,C  13,H  31)          107.2398         0.336970   
     83. A(C  12,C  13,H  31)          110.7385         0.319659   
     84. A(C  12,C  13,C  19)          110.0839         0.357735   
     85. A(O   2,C  13,C  19)          109.6261         0.377903   
     86. A(C  19,C  13,H  31)          110.0164         0.320804   
     87. A(O   2,C  13,C  12)          109.0819         0.376477   
     88. A(N   6,C  14,C  17)          123.3993         0.424601   
     89. A(N   6,C  14,C  16)          118.2660         0.420515   
     90. A(C  16,C  14,C  17)          118.3343         0.424263   
     91. A(N   6,C  15,N   8)          118.4007         0.442235   
     92. A(N   8,C  15,C  18)          123.7552         0.432479   
     93. A(N   6,C  15,C  18)          117.8431         0.417885   
     94. A(C  14,C  16,C  21)          119.7933         0.422967   
     95. A(N   7,C  16,C  21)          118.2513         0.428550   
     96. A(N   7,C  16,C  14)          121.9552         0.425718   
     97. A(C  20,C  17,H  32)          118.5426         0.357128   
     98. A(C  14,C  17,H  32)          120.2480         0.352568   
     99. A(C  14,C  17,C  20)          121.1762         0.434267   
    100. A(N   7,C  18,C  23)          119.0157         0.422459   
    101. A(N   7,C  18,C  15)          123.0348         0.435542   
    102. A(C  15,C  18,C  23)          117.9485         0.396727   
    103. A(O   3,C  19,H  34)          111.2330         0.338427   
    104. A(C  13,C  19,H  33)          108.7376         0.321339   
    105. A(O   3,C  19,H  33)          107.5249         0.338949   
    106. A(O   3,C  19,C  13)          110.1229         0.379539   
    107. A(C  13,C  19,H  34)          110.0233         0.320854   
    108. A(H  33,C  19,H  34)          109.1266         0.288463   
    109. A(C  17,C  20,C  22)          120.4857         0.430559   
    110. A(C  22,C  20,C  24)          120.1152         0.398049   
    111. A(C  17,C  20,C  24)          119.3980         0.406809   
    112. A(C  16,C  21,C  22)          121.2765         0.434699   
    113. A(C  22,C  21,H  35)          121.1884         0.358005   
    114. A(C  16,C  21,H  35)          117.5345         0.351061   
    115. A(C  20,C  22,C  21)          118.9318         0.432314   
    116. A(C  21,C  22,C  25)          120.4960         0.408088   
    117. A(C  20,C  22,C  25)          120.5713         0.397707   
    118. A(O   4,C  23,N   9)          122.0412         0.472196   
    119. A(N   9,C  23,C  18)          112.5589         0.403656   
    120. A(O   4,C  23,C  18)          125.3991         0.449609   
    121. A(H  40,C  24,H  41)          107.7878         0.290323   
    122. A(H  39,C  24,H  41)          108.6491         0.290671   
    123. A(C  20,C  24,H  41)          110.4182         0.329603   
    124. A(H  39,C  24,H  40)          108.5987         0.290681   
    125. A(C  20,C  24,H  40)          110.3272         0.329614   
    126. A(C  20,C  24,H  39)          110.9732         0.330030   
    127. A(H  43,C  25,H  44)          107.8831         0.290316   
    128. A(H  42,C  25,H  44)          108.5754         0.290658   
    129. A(C  22,C  25,H  44)          110.4913         0.329335   
    130. A(H  42,C  25,H  43)          108.5944         0.290661   
    131. A(C  22,C  25,H  43)          110.5255         0.329339   
    132. A(C  22,C  25,H  42)          110.6894         0.329748   
    133. A(N   8,C  26,N   9)          117.3388         0.415626   
    134. A(O   5,C  26,N   9)          119.8023         0.463066   
    135. A(O   5,C  26,N   8)          122.8561         0.471459   
    136. D(C  11,C  10,O   0,H  36)   -156.5961         0.021884   
    137. D(H  27,C  10,O   0,H  36)     87.2971         0.021884   
    138. D(C  12,C  10,O   0,H  36)    -32.8775         0.021884   
    139. D(N   6,C  11,C  10,H  27)    172.3319         0.010259   
    140. D(N   6,C  11,C  10,C  12)    -69.7483         0.010259   
    141. D(H  28,C  11,N   6,C  15)    -28.2755         0.015398   
    142. D(H  29,C  11,N   6,C  14)     34.0900         0.015398   
    143. D(H  28,C  11,C  10,O   0)    173.2708         0.010259   
    144. D(H  28,C  11,C  10,H  27)    -67.6296         0.010259   
    145. D(C  10,C  11,N   6,C  14)    -87.5662         0.015398   
    146. D(H  28,C  11,N   6,C  14)    151.5751         0.015398   
    147. D(H  28,C  11,C  10,C  12)     50.2902         0.010259   
    148. D(C  10,C  11,N   6,C  15)     92.5832         0.015398   
    149. D(N   6,C  11,C  10,O   0)     53.2322         0.010259   
    150. D(C  10,C  12,O   1,H  37)     86.4891         0.022322   
    151. D(C  13,C  12,C  10,H  27)    -59.4171         0.009892   
    152. D(C  13,C  12,C  10,C  11)   -176.0044         0.009892   
    153. D(C  13,C  12,C  10,O   0)     62.2255         0.009892   
    154. D(O   1,C  12,C  10,H  27)     60.2641         0.009892   
    155. D(O   1,C  12,C  10,C  11)    -56.3233         0.009892   
    156. D(H  30,C  12,O   1,H  37)    -34.1672         0.022322   
    157. D(O   1,C  12,C  10,O   0)   -178.0934         0.009892   
    158. D(C  13,C  12,O   1,H  37)   -152.2792         0.022322   
    159. D(C  19,C  13,C  12,O   1)     45.2806         0.010027   
    160. D(O   2,C  13,C  12,C  10)    -73.4458         0.010027   
    161. D(O   2,C  13,C  12,O   1)    165.6054         0.010027   
    162. D(O   2,C  13,C  12,H  30)     45.5731         0.010027   
    163. D(H  31,C  13,O   2,H  38)    161.2819         0.021806   
    164. D(C  12,C  13,O   2,H  38)    -78.7405         0.021806   
    165. D(C  19,C  13,C  12,C  10)    166.2294         0.010027   
    166. D(C  19,C  13,O   2,H  38)     41.8655         0.021806   
    167. D(C  19,C  13,C  12,H  30)    -74.7518         0.010027   
    168. D(C  17,C  14,N   6,C  15)   -176.7485         0.027973   
    169. D(C  17,C  14,N   6,C  11)      3.4035         0.027973   
    170. D(C  16,C  14,N   6,C  15)      3.4846         0.027973   
    171. D(C  16,C  14,N   6,C  11)   -176.3635         0.027973   
    172. D(C  18,C  15,N   8,C  26)      2.8441         0.046585   
    173. D(C  18,C  15,N   6,C  14)     -4.2664         0.030613   
    174. D(C  18,C  15,N   6,C  11)    175.5861         0.030613   
    175. D(N   8,C  15,N   6,C  14)    176.0970         0.030613   
    176. D(N   6,C  15,N   8,C  26)   -177.5424         0.046585   
    177. D(N   8,C  15,N   6,C  11)     -4.0505         0.030613   
    178. D(C  21,C  16,C  14,C  17)     -0.3459         0.021981   
    179. D(C  21,C  16,C  14,N   6)    179.4330         0.021981   
    180. D(N   7,C  16,C  14,C  17)    179.8325         0.021981   
    181. D(C  21,C  16,N   7,C  18)    178.3803         0.029379   
    182. D(C  14,C  16,N   7,C  18)     -1.7955         0.029379   
    183. D(N   7,C  16,C  14,N   6)     -0.3886         0.021981   
    184. D(H  32,C  17,C  14,C  16)   -177.8775         0.024619   
    185. D(H  32,C  17,C  14,N   6)      2.3556         0.024619   
    186. D(C  20,C  17,C  14,C  16)     -0.0042         0.024619   
    187. D(C  20,C  17,C  14,N   6)   -179.7710         0.024619   
    188. D(C  23,C  18,C  15,N   8)      2.0677         0.018741   
    189. D(C  23,C  18,C  15,N   6)   -177.5478         0.018741   
    190. D(N   7,C  18,C  15,N   8)   -178.3041         0.018741   
    191. D(N   7,C  18,C  15,N   6)      2.0804         0.018741   
    192. D(C  23,C  18,N   7,C  16)   -179.4312         0.045970   
    193. D(C  15,C  18,N   7,C  16)      0.9444         0.045970   
    194. D(O   3,C  19,C  13,C  12)     51.4470         0.010441   
    195. D(O   3,C  19,C  13,O   2)    -68.5489         0.010441   
    196. D(H  34,C  19,O   3,H  46)     40.0977         0.021165   
    197. D(H  33,C  19,O   3,H  46)    159.5250         0.021165   
    198. D(C  13,C  19,O   3,H  46)    -82.1500         0.021165   
    199. D(H  33,C  19,C  13,H  31)    -68.6688         0.010441   
    200. D(H  33,C  19,C  13,C  12)    169.0235         0.010441   
    201. D(H  33,C  19,C  13,O   2)     49.0276         0.010441   
    202. D(O   3,C  19,C  13,H  31)    173.7547         0.010441   
    203. D(C  24,C  20,C  17,H  32)     -1.2870         0.028914   
    204. D(C  24,C  20,C  17,C  14)   -179.1957         0.028914   
    205. D(C  22,C  20,C  17,H  32)    178.3142         0.028914   
    206. D(C  22,C  20,C  17,C  14)      0.4055         0.028914   
    207. D(H  35,C  21,C  16,C  14)   -179.9866         0.023749   
    208. D(H  35,C  21,C  16,N   7)     -0.1584         0.023749   
    209. D(C  22,C  21,C  16,C  14)      0.3016         0.023749   
    210. D(C  22,C  21,C  16,N   7)   -179.8702         0.023749   
    211. D(C  25,C  22,C  21,H  35)      0.0634         0.030350   
    212. D(C  25,C  22,C  21,C  16)    179.7647         0.030350   
    213. D(C  20,C  22,C  21,H  35)   -179.6053         0.030350   
    214. D(C  20,C  22,C  21,C  16)      0.0959         0.030350   
    215. D(C  25,C  22,C  20,C  24)     -0.5204         0.022277   
    216. D(C  25,C  22,C  20,C  17)    179.8813         0.022277   
    217. D(C  21,C  22,C  20,C  24)    179.1482         0.022277   
    218. D(C  21,C  22,C  20,C  17)     -0.4502         0.022277   
    219. D(N   9,C  23,C  18,N   7)    178.0484         0.013338   
    220. D(O   4,C  23,C  18,C  15)    178.0313         0.013338   
    221. D(O   4,C  23,C  18,N   7)     -1.6122         0.013338   
    222. D(C  18,C  23,N   9,H  45)   -176.8604         0.028989   
    223. D(C  18,C  23,N   9,C  26)     -2.2107         0.028989   
    224. D(O   4,C  23,N   9,H  45)      2.8132         0.028989   
    225. D(N   9,C  23,C  18,C  15)     -2.3081         0.013338   
    226. D(O   4,C  23,N   9,C  26)    177.4629         0.028989   
    227. D(H  41,C  24,C  20,C  17)   -120.6963         0.012713   
    228. D(H  40,C  24,C  20,C  22)    -59.3459         0.012713   
    229. D(H  40,C  24,C  20,C  17)    120.2568         0.012713   
    230. D(H  39,C  24,C  20,C  22)   -179.7606         0.012713   
    231. D(H  39,C  24,C  20,C  17)     -0.1579         0.012713   
    232. D(H  44,C  25,C  22,C  20)     59.9145         0.012593   
    233. D(H  43,C  25,C  22,C  21)    120.9136         0.012593   
    234. D(H  43,C  25,C  22,C  20)    -59.4231         0.012593   
    235. D(H  42,C  25,C  22,C  21)      0.5593         0.012593   
    236. D(H  42,C  25,C  22,C  20)   -179.7774         0.012593   
    237. D(N   8,C  26,N   9,H  45)   -178.2608         0.023409   
    238. D(N   8,C  26,N   9,C  23)      7.0191         0.023409   
    239. D(O   5,C  26,N   9,H  45)      2.3261         0.023409   
    240. D(O   5,C  26,N   9,C  23)   -172.3941         0.023409   
    241. D(N   9,C  26,N   8,C  15)     -7.0207         0.028822   
    242. D(O   5,C  26,N   8,C  15)    172.3731         0.028822   
    -----------------------------------------------------------------

Number of atoms                         .... 47
Number of degrees of freedom            .... 242


         *************************************************************
         *                GEOMETRY OPTIMIZATION CYCLE   1            *
         *************************************************************
---------------------------------
CARTESIAN COORDINATES (ANGSTROEM)
---------------------------------
  O      1.399950   -2.214247   -3.740937
  O     -0.947613   -0.521721   -1.508567
  O      2.310511   -2.025828   -1.115996
  O      0.247811   -1.828999    0.936056
  O     -4.196513   -6.222941   -2.091949
  O     -3.792859   -2.039556   -0.455604
  N     -1.281539   -3.026938   -4.134184
  N     -2.213786   -5.650645   -4.012284
  N     -2.607847   -2.476297   -2.339019
  N     -4.029995   -4.094607   -1.359933
  C      0.381152   -1.315535   -3.373747
  C     -0.875968   -1.621483   -4.212751
  C      0.099975   -1.391448   -1.853997
  C      1.351649   -0.982995   -1.044812
  C     -0.763537   -3.970515   -4.990770
  C     -2.195101   -3.387876   -3.187522
  C     -1.259247   -5.295227   -4.908810
  C      0.225692   -3.687924   -5.943319
  C     -2.656461   -4.749664   -3.184238
  C      0.971324   -0.729726    0.425272
  C      0.710153   -4.670882   -6.784418
  C     -0.760784   -6.283046   -5.777495
  C      0.208967   -5.992005   -6.708217
  C     -3.691293   -5.131083   -2.191155
  C      1.782912   -4.328104   -7.777830
  C      0.732803   -7.062385   -7.624223
  C     -3.487429   -2.805780   -1.339154
  H      0.668047   -0.275698   -3.621517
  H     -1.707920   -1.011223   -3.853608
  H     -0.688806   -1.374913   -5.259000
  H     -0.149563   -2.433443   -1.589191
  H      1.815735   -0.084140   -1.473404
  H      0.650551   -2.695485   -6.009635
  H      1.889938   -0.636332    1.015479
  H      0.393407    0.200534    0.509329
  H     -1.165859   -7.283895   -5.683183
  H      2.038483   -2.293394   -3.007219
  H     -1.799743   -1.006705   -1.638466
  H      2.038885   -2.715944   -0.490863
  H      2.059461   -3.276813   -7.705912
  H      2.672483   -4.935044   -7.599818
  H      1.439403   -4.529937   -8.794090
  H      0.235048   -8.012046   -7.430787
  H      0.566355   -6.788357   -8.667627
  H      1.806439   -7.196842   -7.480143
  H     -4.694980   -4.296067   -0.625530
  H     -0.679795   -1.741455    0.669742

----------------------------
CARTESIAN COORDINATES (A.U.)
----------------------------
  NO LB      ZA    FRAG     MASS         X           Y           Z
   0 O     8.0000    0    15.999    2.645523   -4.184321   -7.069346
   1 O     8.0000    0    15.999   -1.790729   -0.985909   -2.850778
   2 O     8.0000    0    15.999    4.366234   -3.828260   -2.108927
   3 O     8.0000    0    15.999    0.468294   -3.456307    1.768890
   4 O     8.0000    0    15.999   -7.930260  -11.759654   -3.953211
   5 O     8.0000    0    15.999   -7.167466   -3.854202   -0.860966
   6 N     7.0000    0    14.007   -2.421757   -5.720084   -7.812476
   7 N     7.0000    0    14.007   -4.183450  -10.678172   -7.582118
   8 N     7.0000    0    14.007   -4.928117   -4.679523   -4.420106
   9 N     7.0000    0    14.007   -7.615587   -7.737687   -2.569900
  10 C     6.0000    0    12.011    0.720274   -2.486001   -6.375457
  11 C     6.0000    0    12.011   -1.655340   -3.064159   -7.960945
  12 C     6.0000    0    12.011    0.188925   -2.629456   -3.503547
  13 C     6.0000    0    12.011    2.554247   -1.857591   -1.974408
  14 C     6.0000    0    12.011   -1.442875   -7.503186   -9.431189
  15 C     6.0000    0    12.011   -4.148139   -6.402158   -6.023544
  16 C     6.0000    0    12.011   -2.379631  -10.006529   -9.276307
  17 C     6.0000    0    12.011    0.426497   -6.969167  -11.231244
  18 C     6.0000    0    12.011   -5.019984   -8.975564   -6.017338
  19 C     6.0000    0    12.011    1.835537   -1.378982    0.803648
  20 C     6.0000    0    12.011    1.341994   -8.826688  -12.820692
  21 C     6.0000    0    12.011   -1.437674  -11.873236  -10.917883
  22 C     6.0000    0    12.011    0.394890  -11.323249  -12.676693
  23 C     6.0000    0    12.011   -6.975533   -9.696342   -4.140683
  24 C     6.0000    0    12.011    3.369216   -8.178932  -14.697968
  25 C     6.0000    0    12.011    1.384797  -13.345974  -14.407694
  26 C     6.0000    0    12.011   -6.590285   -5.302156   -2.530635
  27 H     1.0000    0     1.008    1.262426   -0.520994   -6.843675
  28 H     1.0000    0     1.008   -3.227501   -1.910935   -7.282263
  29 H     1.0000    0     1.008   -1.301654   -2.598210   -9.938070
  30 H     1.0000    0     1.008   -0.282633   -4.598540   -3.003135
  31 H     1.0000    0     1.008    3.431241   -0.159001   -2.784330
  32 H     1.0000    0     1.008    1.229364   -5.093729  -11.356564
  33 H     1.0000    0     1.008    3.571466   -1.202493    1.918977
  34 H     1.0000    0     1.008    0.743431    0.378954    0.962492
  35 H     1.0000    0     1.008   -2.203155  -13.764567  -10.739660
  36 H     1.0000    0     1.008    3.852176   -4.333887   -5.682821
  37 H     1.0000    0     1.008   -3.401021   -1.902397   -3.096252
  38 H     1.0000    0     1.008    3.852934   -5.132389   -0.927596
  39 H     1.0000    0     1.008    3.891817   -6.192279  -14.562063
  40 H     1.0000    0     1.008    5.050260   -9.325882  -14.361575
  41 H     1.0000    0     1.008    2.720077   -8.560340  -16.618422
  42 H     1.0000    0     1.008    0.444176  -15.140573  -14.042153
  43 H     1.0000    0     1.008    1.070256  -12.828136  -16.379440
  44 H     1.0000    0     1.008    3.413675  -13.600061  -14.135422
  45 H     1.0000    0     1.008   -8.872227   -8.118391   -1.182081
  46 H     1.0000    0     1.008   -1.284627   -3.290873    1.265628

--------------------------------
INTERNAL COORDINATES (ANGSTROEM)
--------------------------------
 O      0   0   0     0.000000000000     0.00000000     0.00000000
 O      1   0   0     3.655020770755     0.00000000     0.00000000
 O      1   2   0     2.784768813612    66.60724341     0.00000000
 O      3   1   2     2.916229749745   115.88517287    26.02457780
 O      2   1   3     6.587837068300    82.06321506   254.13755658
 O      2   1   3     3.392341695173   121.40532482   253.77855909
 N      1   2   3     2.829398036262    66.99493382   136.76564299
 N      7   1   2     2.787074308568   125.54341841   235.74621156
 N      6   2   1     2.267653095113    52.41614729   335.25822549
 N      5   2   1     2.256852000004    28.20714070   185.80642906
 C      1   2   3     1.407288872830    23.06493769   209.53292214
 C      7   1   2     1.464910912478    57.96056340    55.58229219
 C      2   1   3     1.404702337854    23.66570153   334.96923412
 C      3   1   2     1.418444514233    82.87767701   339.76339464
 C      7   1   2     1.375646389488    85.79603693   187.00442333
 C      9   6   2     1.311980936928   146.65416643   144.76085085
 C      8   7   1     1.356918168614    59.28450478   300.32255477
 C     15   7   1     1.402062474343   123.39929619   315.29655198
 C      8   7   1     1.301302175300    59.32501740   118.28869864
 C      4   3   1     1.411656378363    55.62745390   260.25565292
 C     18  15   7     1.381432728336   121.17620605   180.22896444
 C     17   8   7     1.406720822945   118.25126432   180.37223795
 C     22  17   8     1.375269242860   121.27646992   180.12979179
 C      5   2   1     1.207162964321    10.92521333   280.97635613
 C     21  18  15     1.501724385198   119.39798193   180.80425195
 C     23  22  17     1.503058550092   120.49601249   179.76469116
 C      6   2   1     1.208738852065    81.07189521   346.96031141
 H     11   1   2     1.106778919994   110.72715308   121.92895677
 H     12   7   1     1.092494380182   107.90622507   212.71329520
 H     12   7   1     1.091083851334   108.40512432    95.22817477
 H     13   2   1     1.103695601995   110.91158054   241.05234683
 H     14   3   1     1.098638166582   107.23979925   278.34215107
 H     18  15   7     1.081590620071   120.24801237     2.35564162
 H     20   4   3     1.095864101418   107.52486148   272.78036515
 H     20   4   3     1.098379585560   111.23296771   153.35304934
 H     22  17   8     1.083826322206   117.53452945   359.84157771
 H      1   2   3     0.975874182533    89.92008574   357.08020402
 H      2   1   3     0.989044271122   104.24605086   232.91655945
 H      3   1   2     0.969965247805   117.89125044    85.87848032
 H     25  21  18     1.089433533196   110.97318673   359.84205719
 H     25  21  18     1.091512771893   110.32722764   120.25682657
 H     25  21  18     1.091568093805   110.41817919   239.30369587
 H     26  23  22     1.089511107411   110.68943766     0.55926454
 H     26  23  22     1.091552580586   110.52552578   120.91357629
 H     26  23  22     1.091572962125   110.49132024   240.25117676
 H     10   5   2     1.011008796443    89.95200903   204.01061148
 H      4   3   1     0.969040899477   119.32660531   353.78539076

---------------------------
INTERNAL COORDINATES (A.U.)
---------------------------
 O      0   0   0     0.000000000000     0.00000000     0.00000000
 O      1   0   0     6.906988270520     0.00000000     0.00000000
 O      1   2   0     5.262450404012    66.60724341     0.00000000
 O      3   1   2     5.510875570612   115.88517287    26.02457780
 O      2   1   3    12.449207873982    82.06321506   254.13755658
 O      2   1   3     6.410596756559   121.40532482   253.77855909
 N      1   2   3     5.346787412389    66.99493382   136.76564299
 N      7   1   2     5.266807158082   125.54341841   235.74621156
 N      6   2   1     4.285243316503    52.41614729   335.25822549
 N      5   2   1     4.264832204800    28.20714070   185.80642906
 C      1   2   3     2.659390560964    23.06493769   209.53292214
 C      7   1   2     2.768280435176    57.96056340    55.58229219
 C      2   1   3     2.654502718223    23.66570153   334.96923412
 C      3   1   2     2.680471668064    82.87767701   339.76339464
 C      7   1   2     2.599594933250    85.79603693   187.00442333
 C      9   6   2     2.479284663720   146.65416643   144.76085085
 C      8   7   1     2.564203724822    59.28450478   300.32255477
 C     15   7   1     2.649514099155   123.39929619   315.29655198
 C      8   7   1     2.459104728793    59.32501740   118.28869864
 C      4   3   1     2.667643950308    55.62745390   260.25565292
 C     18  15   7     2.610529528991   121.17620605   180.22896444
 C     17   8   7     2.658317102250   118.25126432   180.37223795
 C     22  17   8     2.598882229411   121.27646992   180.12979179
 C      5   2   1     2.281207401580    10.92521333   280.97635613
 C     21  18  15     2.837847816655   119.39798193   180.80425195
 C     23  22  17     2.840369022923   120.49601249   179.76469116
 C      6   2   1     2.284185397832    81.07189521   346.96031141
 H     11   1   2     2.091509049587   110.72715308   121.92895677
 H     12   7   1     2.064515181393   107.90622507   212.71329520
 H     12   7   1     2.061849668165   108.40512432    95.22817477
 H     13   2   1     2.085682422983   110.91158054   241.05234683
 H     14   3   1     2.076125255113   107.23979925   278.34215107
 H     18  15   7     2.043910060952   120.24801237     2.35564162
 H     20   4   3     2.070883031676   107.52486148   272.78036515
 H     20   4   3     2.075636607798   111.23296771   153.35304934
 H     22  17   8     2.048134925704   117.53452945   359.84157771
 H      1   2   3     1.844134946151    89.92008574   357.08020402
 H      2   1   3     1.869022806744   104.24605086   232.91655945
 H      3   1   2     1.832968677773   117.89125044    85.87848032
 H     25  21  18     2.058731018851   110.97318673   359.84205719
 H     25  21  18     2.062660210554   110.32722764   120.25682657
 H     25  21  18     2.062764753817   110.41817919   239.30369587
 H     26  23  22     2.058877612872   110.68943766     0.55926454
 H     26  23  22     2.062735438083   110.52552578   120.91357629
 H     26  23  22     2.062773953609   110.49132024   240.25117676
 H     10   5   2     1.910529744262    89.95200903   204.01061148
 H      4   3   1     1.831221912581   119.32660531   353.78539076

---------------------
BASIS SET INFORMATION
---------------------
There are 4 groups of distinct atoms

 Group   1 Type O   : 11s6p2d contracted to 5s3p2d pattern {62111/411/11}
 Group   2 Type N   : 11s6p1d contracted to 5s3p1d pattern {62111/411/1}
 Group   3 Type C   : 11s6p1d contracted to 5s3p1d pattern {62111/411/1}
 Group   4 Type H   : 5s contracted to 3s pattern {311}

Atom   0O    basis set group =>   1
Atom   1O    basis set group =>   1
Atom   2O    basis set group =>   1
Atom   3O    basis set group =>   1
Atom   4O    basis set group =>   1
Atom   5O    basis set group =>   1
Atom   6N    basis set group =>   2
Atom   7N    basis set group =>   2
Atom   8N    basis set group =>   2
Atom   9N    basis set group =>   2
Atom  10C    basis set group =>   3
Atom  11C    basis set group =>   3
Atom  12C    basis set group =>   3
Atom  13C    basis set group =>   3
Atom  14C    basis set group =>   3
Atom  15C    basis set group =>   3
Atom  16C    basis set group =>   3
Atom  17C    basis set group =>   3
Atom  18C    basis set group =>   3
Atom  19C    basis set group =>   3
Atom  20C    basis set group =>   3
Atom  21C    basis set group =>   3
Atom  22C    basis set group =>   3
Atom  23C    basis set group =>   3
Atom  24C    basis set group =>   3
Atom  25C    basis set group =>   3
Atom  26C    basis set group =>   3
Atom  27H    basis set group =>   4
Atom  28H    basis set group =>   4
Atom  29H    basis set group =>   4
Atom  30H    basis set group =>   4
Atom  31H    basis set group =>   4
Atom  32H    basis set group =>   4
Atom  33H    basis set group =>   4
Atom  34H    basis set group =>   4
Atom  35H    basis set group =>   4
Atom  36H    basis set group =>   4
Atom  37H    basis set group =>   4
Atom  38H    basis set group =>   4
Atom  39H    basis set group =>   4
Atom  40H    basis set group =>   4
Atom  41H    basis set group =>   4
Atom  42H    basis set group =>   4
Atom  43H    basis set group =>   4
Atom  44H    basis set group =>   4
Atom  45H    basis set group =>   4
Atom  46H    basis set group =>   4
---------------------------------
AUXILIARY/J BASIS SET INFORMATION
---------------------------------
There are 4 groups of distinct atoms

 Group   1 Type O   : 8s3p3d contracted to 6s3p3d pattern {311111/111/111}
 Group   2 Type N   : 8s3p3d contracted to 6s3p3d pattern {311111/111/111}
 Group   3 Type C   : 8s3p3d contracted to 6s3p3d pattern {311111/111/111}
 Group   4 Type H   : 5s2p contracted to 3s1p pattern {311/2}

Atom   0O    basis set group =>   1
Atom   1O    basis set group =>   1
Atom   2O    basis set group =>   1
Atom   3O    basis set group =>   1
Atom   4O    basis set group =>   1
Atom   5O    basis set group =>   1
Atom   6N    basis set group =>   2
Atom   7N    basis set group =>   2
Atom   8N    basis set group =>   2
Atom   9N    basis set group =>   2
Atom  10C    basis set group =>   3
Atom  11C    basis set group =>   3
Atom  12C    basis set group =>   3
Atom  13C    basis set group =>   3
Atom  14C    basis set group =>   3
Atom  15C    basis set group =>   3
Atom  16C    basis set group =>   3
Atom  17C    basis set group =>   3
Atom  18C    basis set group =>   3
Atom  19C    basis set group =>   3
Atom  20C    basis set group =>   3
Atom  21C    basis set group =>   3
Atom  22C    basis set group =>   3
Atom  23C    basis set group =>   3
Atom  24C    basis set group =>   3
Atom  25C    basis set group =>   3
Atom  26C    basis set group =>   3
Atom  27H    basis set group =>   4
Atom  28H    basis set group =>   4
Atom  29H    basis set group =>   4
Atom  30H    basis set group =>   4
Atom  31H    basis set group =>   4
Atom  32H    basis set group =>   4
Atom  33H    basis set group =>   4
Atom  34H    basis set group =>   4
Atom  35H    basis set group =>   4
Atom  36H    basis set group =>   4
Atom  37H    basis set group =>   4
Atom  38H    basis set group =>   4
Atom  39H    basis set group =>   4
Atom  40H    basis set group =>   4
Atom  41H    basis set group =>   4
Atom  42H    basis set group =>   4
Atom  43H    basis set group =>   4
Atom  44H    basis set group =>   4
Atom  45H    basis set group =>   4
Atom  46H    basis set group =>   4


           ************************************************************
           *        Program running with 16 parallel MPI-processes    *
           *              working on a common directory               *
           ************************************************************
------------------------------------------------------------------------------
                             ORCA STARTUP CALCULATIONS
                           -- RI-GTO INTEGRALS CHOSEN --
------------------------------------------------------------------------------
------------------------------------------------------------------------------
                   ___                                                        
                  /   \      - P O W E R E D   B Y -                         
                 /     \                                                     
                 |  |  |   _    _      __       _____    __    __             
                 |  |  |  | |  | |    /  \     |  _  \  |  |  /  |          
                  \  \/   | |  | |   /    \    | | | |  |  | /  /          
                 / \  \   | |__| |  /  /\  \   | |_| |  |  |/  /          
                |  |  |   |  __  | /  /__\  \  |    /   |      \           
                |  |  |   | |  | | |   __   |  |    \   |  |\   \          
                \     /   | |  | | |  |  |  |  | |\  \  |  | \   \       
                 \___/    |_|  |_| |__|  |__|  |_| \__\ |__|  \__/        
                                                                              
                      - O R C A' S   B I G   F R I E N D -                    
                                      &                                       
                       - I N T E G R A L  F E E D E R -                       
                                                                              
 v1 FN, 2020, v2 2021, v3 2022-2024                                           
------------------------------------------------------------------------------


----------------------
SHARK INTEGRAL PACKAGE
----------------------

Number of atoms                             ...     47
Number of basis functions                   ...    603
Number of shells                            ...    309
Maximum angular momentum                    ...      2
Integral batch strategy                     ... SHARK/LIBINT Hybrid
RI-J (if used) integral strategy            ... SPLIT-RIJ (Revised 2003 algorithm where possible)
Printlevel                                  ...      1
Contraction scheme used                     ... SEGMENTED contraction
Prescreening option                         ... SCHWARTZ
   Thresh                                   ... 2.500e-11
   Tcut                                     ... 2.500e-12
   Tpresel                                  ... 2.500e-12 
Coulomb Range Separation                    ... NOT USED
Exchange Range Separation                   ... NOT USED
Multipole approximations                    ... NOT USED
Finite Nucleus Model                        ... NOT USED
CABS basis                                  ... NOT available
Auxiliary Coulomb fitting basis             ... AVAILABLE
   # of basis functions in Aux-J            ...    930
   # of shells in Aux-J                     ...    404
   Maximum angular momentum in Aux-J        ...      2
Auxiliary J/K fitting basis                 ... NOT available
Auxiliary Correlation fitting basis         ... NOT available
Auxiliary 'external' fitting basis          ... NOT available

Checking pre-screening integrals            ... done (  0.0 sec) Dimension = 309
Check shell pair data                       ... done (  0.0 sec)
Shell pair information
Shell pair cut-off parameter TPreSel        ...   2.5e-12
Total number of shell pairs                 ...     47895
Shell pairs after pre-screening             ...     33541
Total number of primitive shell pairs       ...    176182
Primitive shell pairs kept                  ...     76041
          la=0 lb=0:  12265 shell pairs
          la=1 lb=0:  11828 shell pairs
          la=1 lb=1:   2792 shell pairs
          la=2 lb=0:   4200 shell pairs
          la=2 lb=1:   2073 shell pairs
          la=2 lb=2:    383 shell pairs

Calculating one electron integrals          ... done (  0.0 sec)
Calculating RI/J V-Matrix + Cholesky decomp.... done (  0.0 sec)
Calculating Nuclear repulsion               ... done (  0.0 sec) ENN=   2658.464136485602 Eh

Diagonalization of the overlap matrix:
Smallest eigenvalue                        ... 4.999e-06
Time for diagonalization                   ...    0.036 sec
Threshold for overlap eigenvalues          ... 1.000e-07
Number of eigenvalues below threshold      ... 0
Time for construction of square roots      ...    0.021 sec
Total time needed                          ...    0.060 sec

-------------------
DFT GRID GENERATION
-------------------

General Integration Accuracy     IntAcc      ... 4.959
Radial Grid Type                 RadialGrid  ... OptM3 with GC (2021)
Angular Grid (max. ang.)         AngularGrid ... 6 (Lebedev-590)
Angular grid pruning method      GridPruning ... 4 (adaptive)
Weight generation scheme         WeightScheme... mBecke (2022)
Basis function cutoff            BFCut       ... 1.0000e-11
Integration weight cutoff        WCut        ... 1.0000e-14
Partially contracted basis set               ... off
Rotationally invariant grid construction     ... off
Angular grids for H and He will be reduced by one unit
Diffuse basis detected: some atoms will have their outermost
                        angular grid increased by 1.

Total number of grid points                  ...   554126
Total number of batches                      ...     8681
Average number of points per batch           ...       63
Average number of grid points per atom       ...    11790
Initializing property integral containers    ... done (  0.0 sec)

SHARK setup successfully completed in   4.5 seconds

Maximum memory used throughout the entire STARTUP-calculation: 137.4 MB


           ************************************************************
           *        Program running with 16 parallel MPI-processes    *
           *              working on a common directory               *
           ************************************************************
-------------------------------------------------------------------------------
                                 ORCA GUESS
                   Start orbitals & Density for SCF / CASSCF
-------------------------------------------------------------------------------

------------
SCF SETTINGS
------------
Hamiltonian:
 Density Functional     Method          .... DFT(GTOs)
 Exchange Functional    Exchange        .... B973C
 Correlation Functional Correlation     .... B973C
 Gradients option       PostSCFGGA      .... off
 RI-approximation to the Coulomb term is turned on
   Number of AuxJ basis functions       .... 930


General Settings:
 Integral files         IntName         .... m1_00_Vitamin_B2-GFN1_0008-B97-3C-TZ
 Hartree-Fock type      HFTyp           .... RHF
 Total Charge           Charge          ....    0
 Multiplicity           Mult            ....    1
 Number of Electrons    NEL             ....  198
 Basis Dimension        Dim             ....  603
 Nuclear Repulsion      ENuc            ....   2658.4641364856 Eh

Convergence Acceleration:
 AO-DIIS                CNVDIIS         .... on
   Start iteration      DIISMaxIt       ....    12
   Startup error        DIISStart       ....  0.200000
   # of expansion vecs  DIISMaxEq       ....     5
   Bias factor          DIISBfac        ....   1.050
   Max. coefficient     DIISMaxC        ....  10.000
 MO-DIIS                CNVKDIIS        .... off
 Trust-Rad. Augm. Hess. CNVTRAH         .... off
 SOSCF                  CNVSOSCF        .... on
   Start iteration      SOSCFMaxIt      ....   150
   Startup grad/error   SOSCFStart      ....  0.003300
   Hessian update       SOSCFHessUp     .... L-BFGS
 Level Shifting         CNVShift        .... on
   Level shift para.    LevelShift      ....    0.2500
   Turn off err/grad.   ShiftErr        ....    0.0010
 Zerner damping         CNVZerner       .... off
 Static damping         CNVDamp         .... on
   Fraction old density DampFac         ....    0.7000
   Max. Damping (<1)    DampMax         ....    0.9800
   Min. Damping (>=0)   DampMin         ....    0.0000
   Turn off err/grad.   DampErr         ....    0.1000

SCF Procedure:
 Maximum # iterations   MaxIter         ....   800
 SCF integral mode      SCFMode         .... Direct
   Integral package                     .... SHARK and LIBINT hybrid scheme
 Reset frequency        DirectResetFreq ....    20
 Integral Threshold     Thresh          ....  2.500e-11 Eh
 Primitive CutOff       TCut            ....  2.500e-12 Eh

Convergence Tolerance:
 Convergence Check Mode ConvCheckMode   .... Total+1el-Energy
 Convergence forced     ConvForced      .... 0
 Energy Change          TolE            ....  1.000e-08 Eh
 1-El. energy change                    ....  1.000e-05 Eh
 Orbital Gradient       TolG            ....  1.000e-05
 Orbital Rotation angle TolX            ....  1.000e-05
 DIIS Error             TolErr          ....  5.000e-07

--------------------------------
INITIAL GUESS: MINIMAL BASIS EHT
--------------------------------
The minimal basis has 155 functions
EHT matrix was diagonalized
Basis set overlap was calculated now projecting the orbitals
Using GuessMode=FMatrix for the initial guess
C*T matrix was formed
Effective Fockian was calculated
Effective Fockian was diagonalized
Initial density was built
                      ------------------
                      INITIAL GUESS DONE
                      ------------------
             **** ENERGY FILE WAS UPDATED (m1_00_Vitamin_B2-GFN1_0008-B97-3C-TZ.en.tmp) ****
Finished Guess after   0.4 sec
Maximum memory used throughout the entire GUESS-calculation: 58.5 MB


           ************************************************************
           *        Program running with 16 parallel MPI-processes    *
           *              working on a common directory               *
           ************************************************************

-------------------------------------------------------------------------------------------
                                      ORCA LEAN-SCF
                              memory conserving SCF solver
-------------------------------------------------------------------------------------------

----------------------------------------D-I-I-S--------------------------------------------
Iteration    Energy (Eh)           Delta-E    RMSDP     MaxDP     DIISErr   Damp  Time(sec)
-------------------------------------------------------------------------------------------
               ***  Starting incremental Fock matrix formation  ***
    1    -1324.7231838653028717     0.00e+00  7.29e-03  3.45e-01  4.66e-01  0.700   1.3
Warning: op=0 Small HOMO/LUMO gap (   0.023) - skipping pre-diagonalization
         Will do a full diagonalization
    2    -1326.4427467302457444    -1.72e+00  6.31e-03  7.72e-01  3.32e-01  0.700   1.4
    3    -1327.3180799049205234    -8.75e-01  3.66e-03  3.16e-01  2.37e-01  0.700   1.3
                               ***Turning on AO-DIIS***
    4    -1327.9297105972063946    -6.12e-01  2.83e-03  2.37e-01  1.66e-01  0.700   1.3
    5    -1328.3569108140795834    -4.27e-01  2.05e-03  1.64e-01  1.14e-01  0.700   1.3
    6    -1328.6596806612715227    -3.03e-01  1.37e-03  1.13e-01  7.89e-02  0.700   1.3
    7    -1328.8741021313312558    -2.14e-01  2.99e-03  2.40e-01  5.54e-02  0.000   1.3
    8    -1329.3699095296196901    -4.96e-01  4.31e-04  3.89e-02  2.16e-02  0.000   1.3
    9    -1329.3733239422363113    -3.41e-03  1.87e-04  2.24e-02  1.04e-02  0.000   1.2
   10    -1329.3735495644177718    -2.26e-04  6.96e-05  6.35e-03  5.62e-03  0.000   1.2
                              *** Initializing SOSCF ***
---------------------------------------S-O-S-C-F--------------------------------------
Iteration    Energy (Eh)           Delta-E    RMSDP     MaxDP     MaxGrad    Time(sec)
--------------------------------------------------------------------------------------
   11    -1329.3737806901508520    -2.31e-04  5.37e-05  5.88e-03  1.33e-03     1.3
               *** Restarting incremental Fock matrix formation ***
   12    -1329.3737943678070224    -1.37e-05  1.08e-04  1.11e-02  1.51e-04     1.4
   13    -1329.3737900990431626     4.27e-06  2.98e-05  3.70e-03  3.17e-04     1.1
   14    -1329.3737966406456508    -6.54e-06  2.13e-05  1.71e-03  4.14e-05     1.1
   15    -1329.3737961148572140     5.26e-07  1.26e-05  1.20e-03  8.48e-05     1.1
   16    -1329.3737967960055357    -6.81e-07  2.76e-05  2.29e-03  1.58e-05     1.1
   17    -1329.3737967454289901     5.06e-08  7.08e-06  6.08e-04  3.64e-05     1.1
   18    -1329.3737968081422878    -6.27e-08  1.46e-05  1.71e-03  1.90e-06     1.1
                  *** Gradient check signals convergence ***

               *****************************************************
               *                     SUCCESS                       *
               *           SCF CONVERGED AFTER  18 CYCLES          *
               *****************************************************

             **** ENERGY FILE WAS UPDATED (m1_00_Vitamin_B2-GFN1_0008-B97-3C-TZ.en.tmp) ****

----------------
TOTAL SCF ENERGY
----------------

Total Energy       :      -1329.37379680814229 Eh          -36174.10007 eV

Components:
Nuclear Repulsion  :       2658.46413648560247 Eh           72340.48687 eV
Electronic Energy  :      -3987.83793329374475 Eh         -108514.58694 eV
One Electron Energy:      -7100.98976516880066 Eh         -193227.75502 eV
Two Electron Energy:       3113.15183187505590 Eh           84713.16808 eV

Virial components:
Potential Energy   :      -2653.97216970360387 Eh          -72218.25424 eV
Kinetic Energy     :       1324.59837289546135 Eh           36044.15418 eV
Virial Ratio       :          2.00360518630432

DFT components:
N(Alpha)           :       98.999993056950 electrons
N(Beta)            :       98.999993056950 electrons
N(Total)           :      197.999986113901 electrons
E(XC)              :     -178.096836259158 Eh       

---------------
SCF CONVERGENCE
---------------

  Last Energy change         ...    6.2713e-08  Tolerance :   1.0000e-08
  Last MAX-Density change    ...    1.7124e-03  Tolerance :   1.0000e-07
  Last RMS-Density change    ...    1.4553e-05  Tolerance :   5.0000e-09
  Last DIIS Error            ...    1.3270e-03  Tolerance :   5.0000e-07
  Last Orbital Gradient      ...    1.8954e-06  Tolerance :   1.0000e-05
  Last Orbital Rotation      ...    1.1065e-05  Tolerance :   1.0000e-05


----------------
ORBITAL ENERGIES
----------------

  NO   OCC          E(Eh)            E(eV) 
   0   2.0000     -18.765733      -510.6415 
   1   2.0000     -18.750484      -510.2266 
   2   2.0000     -18.748221      -510.1650 
   3   2.0000     -18.734460      -509.7906 
   4   2.0000     -18.728455      -509.6272 
   5   2.0000     -18.723659      -509.4967 
   6   2.0000     -14.094691      -383.5360 
   7   2.0000     -14.041210      -382.0807 
   8   2.0000     -14.029097      -381.7511 
   9   2.0000     -13.997220      -380.8837 
  10   2.0000     -10.023856      -272.7630 
  11   2.0000     -10.010977      -272.4125 
  12   2.0000     -10.008889      -272.3557 
  13   2.0000      -9.979457      -271.5548 
  14   2.0000      -9.969637      -271.2876 
  15   2.0000      -9.961858      -271.0759 
  16   2.0000      -9.959215      -271.0040 
  17   2.0000      -9.957278      -270.9513 
  18   2.0000      -9.951475      -270.7934 
  19   2.0000      -9.947427      -270.6833 
  20   2.0000      -9.937817      -270.4218 
  21   2.0000      -9.937777      -270.4207 
  22   2.0000      -9.928825      -270.1771 
  23   2.0000      -9.922941      -270.0170 
  24   2.0000      -9.920070      -269.9388 
  25   2.0000      -9.913687      -269.7651 
  26   2.0000      -9.910447      -269.6770 
  27   2.0000      -0.999875       -27.2080 
  28   2.0000      -0.977570       -26.6010 
  29   2.0000      -0.974505       -26.5176 
  30   2.0000      -0.971362       -26.4321 
  31   2.0000      -0.952055       -25.9067 
  32   2.0000      -0.943523       -25.6746 
  33   2.0000      -0.935013       -25.4430 
  34   2.0000      -0.897078       -24.4107 
  35   2.0000      -0.886757       -24.1299 
  36   2.0000      -0.847439       -23.0600 
  37   2.0000      -0.816724       -22.2242 
  38   2.0000      -0.747645       -20.3445 
  39   2.0000      -0.736237       -20.0340 
  40   2.0000      -0.726516       -19.7695 
  41   2.0000      -0.697756       -18.9869 
  42   2.0000      -0.685758       -18.6604 
  43   2.0000      -0.674055       -18.3420 
  44   2.0000      -0.645142       -17.5552 
  45   2.0000      -0.635756       -17.2998 
  46   2.0000      -0.616372       -16.7723 
  47   2.0000      -0.600417       -16.3382 
  48   2.0000      -0.580584       -15.7985 
  49   2.0000      -0.566322       -15.4104 
  50   2.0000      -0.558019       -15.1845 
  51   2.0000      -0.552574       -15.0363 
  52   2.0000      -0.534472       -14.5437 
  53   2.0000      -0.523416       -14.2429 
  54   2.0000      -0.496443       -13.5089 
  55   2.0000      -0.494233       -13.4488 
  56   2.0000      -0.486058       -13.2263 
  57   2.0000      -0.472518       -12.8579 
  58   2.0000      -0.467189       -12.7129 
  59   2.0000      -0.457713       -12.4550 
  60   2.0000      -0.454372       -12.3641 
  61   2.0000      -0.439842       -11.9687 
  62   2.0000      -0.435666       -11.8551 
  63   2.0000      -0.431641       -11.7456 
  64   2.0000      -0.421181       -11.4609 
  65   2.0000      -0.419368       -11.4116 
  66   2.0000      -0.415804       -11.3146 
  67   2.0000      -0.413285       -11.2461 
  68   2.0000      -0.399710       -10.8767 
  69   2.0000      -0.392755       -10.6874 
  70   2.0000      -0.391555       -10.6547 
  71   2.0000      -0.388128       -10.5615 
  72   2.0000      -0.384231       -10.4554 
  73   2.0000      -0.383589       -10.4380 
  74   2.0000      -0.372328       -10.1315 
  75   2.0000      -0.370606       -10.0847 
  76   2.0000      -0.370096       -10.0708 
  77   2.0000      -0.368618       -10.0306 
  78   2.0000      -0.356922        -9.7123 
  79   2.0000      -0.344662        -9.3787 
  80   2.0000      -0.340465        -9.2645 
  81   2.0000      -0.338776        -9.2186 
  82   2.0000      -0.332731        -9.0541 
  83   2.0000      -0.326048        -8.8722 
  84   2.0000      -0.306735        -8.3467 
  85   2.0000      -0.304447        -8.2844 
  86   2.0000      -0.292528        -7.9601 
  87   2.0000      -0.281355        -7.6560 
  88   2.0000      -0.278070        -7.5667 
  89   2.0000      -0.262747        -7.1497 
  90   2.0000      -0.256406        -6.9772 
  91   2.0000      -0.252420        -6.8687 
  92   2.0000      -0.249942        -6.8013 
  93   2.0000      -0.241546        -6.5728 
  94   2.0000      -0.240204        -6.5363 
  95   2.0000      -0.232887        -6.3372 
  96   2.0000      -0.225319        -6.1312 
  97   2.0000      -0.219322        -5.9681 
  98   2.0000      -0.212723        -5.7885 
  99   0.0000      -0.136984        -3.7275 
 100   0.0000      -0.076234        -2.0744 
 101   0.0000      -0.051491        -1.4011 
 102   0.0000      -0.028928        -0.7872 
 103   0.0000      -0.006590        -0.1793 
 104   0.0000       0.007639         0.2079 
 105   0.0000       0.010030         0.2729 
 106   0.0000       0.022235         0.6050 
 107   0.0000       0.024268         0.6604 
 108   0.0000       0.036607         0.9961 
 109   0.0000       0.041722         1.1353 
*Only the first 10 virtual orbitals were printed.

                    ********************************
                    * MULLIKEN POPULATION ANALYSIS *
                    ********************************

-----------------------
MULLIKEN ATOMIC CHARGES
-----------------------
   0 O :   -0.559567
   1 O :   -0.557939
   2 O :   -0.621827
   3 O :   -0.585432
   4 O :   -0.343877
   5 O :   -0.435370
   6 N :    0.015660
   7 N :    0.052231
   8 N :   -0.397561
   9 N :   -0.391345
  10 C :    0.038276
  11 C :   -0.303455
  12 C :   -0.030879
  13 C :   -0.010720
  14 C :    0.064704
  15 C :    0.090118
  16 C :   -0.052362
  17 C :   -0.147521
  18 C :    0.086024
  19 C :   -0.161541
  20 C :    0.091191
  21 C :   -0.221636
  22 C :    0.169830
  23 C :    0.153272
  24 C :   -0.636055
  25 C :   -0.633657
  26 C :    0.412064
  27 H :    0.145913
  28 H :    0.233596
  29 H :    0.247063
  30 H :    0.139743
  31 H :    0.157770
  32 H :    0.241448
  33 H :    0.165820
  34 H :    0.166900
  35 H :    0.207541
  36 H :    0.418318
  37 H :    0.425272
  38 H :    0.441460
  39 H :    0.194595
  40 H :    0.184563
  41 H :    0.182219
  42 H :    0.196035
  43 H :    0.178657
  44 H :    0.179896
  45 H :    0.364660
  46 H :    0.445908
Sum of atomic charges:    0.0000000

--------------------------------
MULLIKEN REDUCED ORBITAL CHARGES
--------------------------------
  0 O s       :     3.796448  s :     3.796448
      pz      :     1.660338  p :     4.751216
      px      :     1.434809
      py      :     1.656068
      dz2     :     0.003373  d :     0.011904
      dxz     :     0.001227
      dyz     :     0.004616
      dx2y2   :    -0.000255
      dxy     :     0.002944

  1 O s       :     3.804338  s :     3.804338
      pz      :     1.851520  p :     4.739379
      px      :     1.280208
      py      :     1.607651
      dz2     :     0.005152  d :     0.014222
      dxz     :     0.005864
      dyz     :     0.000397
      dx2y2   :    -0.000169
      dxy     :     0.002978

  2 O s       :     3.809716  s :     3.809716
      pz      :     1.736228  p :     4.765360
      px      :     1.664464
      py      :     1.364668
      dz2     :     0.009020  d :     0.046751
      dxz     :     0.007668
      dyz     :     0.010570
      dx2y2   :     0.008846
      dxy     :     0.010646

  3 O s       :     3.811912  s :     3.811912
      pz      :     1.819358  p :     4.741749
      px      :     1.352209
      py      :     1.570182
      dz2     :     0.005844  d :     0.031771
      dxz     :     0.008387
      dyz     :     0.004581
      dx2y2   :     0.011610
      dxy     :     0.001349

  4 O s       :     3.842253  s :     3.842253
      pz      :     1.614548  p :     4.472584
      px      :     1.489403
      py      :     1.368632
      dz2     :     0.005337  d :     0.029040
      dxz     :     0.001460
      dyz     :     0.004166
      dx2y2   :     0.008958
      dxy     :     0.009118

  5 O s       :     3.854783  s :     3.854783
      pz      :     1.420938  p :     4.547362
      px      :     1.567576
      py      :     1.558849
      dz2     :     0.004805  d :     0.033226
      dxz     :     0.004288
      dyz     :     0.015323
      dx2y2   :     0.005206
      dxy     :     0.003604

  6 N s       :     3.235193  s :     3.235193
      pz      :     1.255401  p :     3.696145
      px      :     1.346182
      py      :     1.094562
      dz2     :     0.010214  d :     0.053001
      dxz     :     0.007780
      dyz     :     0.012704
      dx2y2   :     0.011150
      dxy     :     0.011154

  7 N s       :     3.482227  s :     3.482227
      pz      :     1.000670  p :     3.416801
      px      :     1.048905
      py      :     1.367226
      dz2     :     0.008751  d :     0.048742
      dxz     :     0.007500
      dyz     :     0.012885
      dx2y2   :     0.009168
      dxy     :     0.010436

  8 N s       :     3.504414  s :     3.504414
      pz      :     1.150470  p :     3.851342
      px      :     1.282370
      py      :     1.418502
      dz2     :     0.006407  d :     0.041805
      dxz     :     0.007513
      dyz     :     0.012464
      dx2y2   :     0.007204
      dxy     :     0.008218

  9 N s       :     3.363455  s :     3.363455
      pz      :     1.372575  p :     3.988507
      px      :     1.437612
      py      :     1.178320
      dz2     :     0.005498  d :     0.039383
      dxz     :     0.007659
      dyz     :     0.009285
      dx2y2   :     0.008837
      dxy     :     0.008105

 10 C s       :     3.187921  s :     3.187921
      pz      :     0.937862  p :     2.702534
      px      :     0.835675
      py      :     0.928997
      dz2     :     0.015689  d :     0.071269
      dxz     :     0.014616
      dyz     :     0.007821
      dx2y2   :     0.019984
      dxy     :     0.013158

 11 C s       :     3.195267  s :     3.195267
      pz      :     1.082996  p :     3.056172
      px      :     1.127609
      py      :     0.845567
      dz2     :     0.013902  d :     0.052017
      dxz     :     0.007444
      dyz     :     0.006224
      dx2y2   :     0.011451
      dxy     :     0.012996

 12 C s       :     3.145818  s :     3.145818
      pz      :     0.996296  p :     2.814327
      px      :     0.841909
      py      :     0.976122
      dz2     :     0.017186  d :     0.070734
      dxz     :     0.015721
      dyz     :     0.008261
      dx2y2   :     0.016022
      dxy     :     0.013545

 13 C s       :     3.163762  s :     3.163762
      pz      :     1.004358  p :     2.778965
      px      :     0.860399
      py      :     0.914209
      dz2     :     0.012819  d :     0.067992
      dxz     :     0.013539
      dyz     :     0.010380
      dx2y2   :     0.013845
      dxy     :     0.017409

 14 C s       :     3.212673  s :     3.212673
      pz      :     0.966602  p :     2.661391
      px      :     0.852610
      py      :     0.842179
      dz2     :     0.012591  d :     0.061232
      dxz     :     0.008242
      dyz     :     0.014603
      dx2y2   :     0.011669
      dxy     :     0.014127

 15 C s       :     3.135581  s :     3.135581
      pz      :     0.874998  p :     2.691068
      px      :     0.954349
      py      :     0.861721
      dz2     :     0.020683  d :     0.083233
      dxz     :     0.014218
      dyz     :     0.016402
      dx2y2   :     0.017745
      dxy     :     0.014185

 16 C s       :     3.171380  s :     3.171380
      pz      :     0.923104  p :     2.817868
      px      :     0.910763
      py      :     0.984001
      dz2     :     0.011872  d :     0.063115
      dxz     :     0.009904
      dyz     :     0.013836
      dx2y2   :     0.012716
      dxy     :     0.014787

 17 C s       :     2.713580  s :     2.713580
      pz      :     1.083281  p :     3.393699
      px      :     1.119806
      py      :     1.190612
      dz2     :     0.008202  d :     0.040242
      dxz     :     0.007498
      dyz     :     0.007275
      dx2y2   :     0.009312
      dxy     :     0.007955

 18 C s       :     3.114248  s :     3.114248
      pz      :     0.917864  p :     2.737218
      px      :     0.898296
      py      :     0.921058
      dz2     :     0.011759  d :     0.062511
      dxz     :     0.011148
      dyz     :     0.012683
      dx2y2   :     0.015735
      dxy     :     0.011187

 19 C s       :     3.214990  s :     3.214990
      pz      :     0.965962  p :     2.882444
      px      :     1.027352
      py      :     0.889130
      dz2     :     0.015104  d :     0.064106
      dxz     :     0.013586
      dyz     :     0.009217
      dx2y2   :     0.012888
      dxy     :     0.013312

 20 C s       :     3.331952  s :     3.331952
      pz      :     0.917901  p :     2.527863
      px      :     0.873104
      py      :     0.736858
      dz2     :     0.008872  d :     0.048994
      dxz     :     0.006563
[...]
 95:   1372.31   0.005723   28.92  0.001301  ( 0.026327  0.014297 -0.020099)
 96:   1375.81   0.000407    2.06  0.000092  (-0.004079 -0.008368 -0.002399)
 97:   1386.97   0.018161   91.78  0.004086  ( 0.046647 -0.002237 -0.043648)
 98:   1389.95   0.004295   21.71  0.000964  (-0.023514  0.006579  0.019187)
 99:   1392.62   0.000816    4.12  0.000183  ( 0.009451 -0.005897 -0.007665)
100:   1402.90   0.003416   17.26  0.000760  ( 0.000163 -0.010675  0.025412)
101:   1409.48   0.014040   70.95  0.003108  ( 0.037485 -0.001724 -0.041236)
102:   1412.75   0.004967   25.10  0.001097  ( 0.020946 -0.006416 -0.024842)
103:   1419.38   0.008440   42.65  0.001856  (-0.029830  0.031037  0.001581)
104:   1423.07   0.000738    3.73  0.000162  ( 0.007368 -0.007018 -0.007640)
105:   1444.37   0.009469   47.85  0.002046  (-0.002208 -0.037875 -0.024626)
106:   1453.17   0.005214   26.35  0.001120  ( 0.024460  0.013839 -0.018160)
107:   1478.43   0.000345    1.74  0.000073  (-0.003497 -0.001515 -0.007631)
108:   1480.17   0.004734   23.92  0.000998  (-0.012442 -0.013787 -0.025557)
109:   1486.73   0.002223   11.23  0.000467  (-0.000816  0.007437  0.020263)
110:   1491.38   0.020526  103.73  0.004295  ( 0.028598 -0.049171 -0.032547)
111:   1497.42   0.004588   23.19  0.000956  ( 0.004190  0.030009 -0.006176)
112:   1498.91   0.004290   21.68  0.000893  ( 0.022918  0.002244  0.019050)
113:   1501.95   0.005496   27.77  0.001142  (-0.016643 -0.025781 -0.014149)
114:   1521.38   0.001242    6.28  0.000255  ( 0.011385  0.011074  0.001596)
115:   1536.94   0.004752   24.02  0.000965  ( 0.012049 -0.011938 -0.026023)
116:   1563.97   0.104195  526.56  0.020790  (-0.082125  0.033243  0.113757)
117:   1591.04   0.114084  576.53  0.022376  ( 0.081494 -0.044039 -0.117455)
118:   1658.51   0.001007    5.09  0.000189  (-0.000570 -0.012988 -0.004519)
119:   1725.56   0.116899  590.76  0.021141  ( 0.049205 -0.094602 -0.098845)
120:   1753.94   0.066174  334.41  0.011774  (-0.057950 -0.090993  0.011651)
121:   2901.52   0.008793   44.43  0.000946  ( 0.000545  0.030336 -0.005010)
122:   2948.17   0.007457   37.68  0.000789  (-0.004122  0.027213 -0.005638)
123:   2998.66   0.003729   18.85  0.000388  ( 0.005925 -0.013740 -0.012814)
124:   3000.06   0.010018   50.63  0.001042  (-0.018847  0.007296  0.025172)
125:   3012.71   0.002217   11.20  0.000230  (-0.001359  0.008387 -0.012547)
126:   3026.80   0.013576   68.61  0.001400  ( 0.013632  0.033938  0.007883)
127:   3047.36   0.005585   28.23  0.000572  ( 0.016137 -0.007063  0.016176)
128:   3048.75   0.000356    1.80  0.000036  ( 0.004203 -0.001905  0.003888)
129:   3074.20   0.003730   18.85  0.000379  (-0.017145  0.006215 -0.006784)
130:   3074.41   0.003366   17.01  0.000342  ( 0.000951  0.011149 -0.014713)
131:   3096.04   0.004125   20.85  0.000416  ( 0.009218  0.018167 -0.000887)
132:   3100.17   0.002488   12.57  0.000250  ( 0.006395  0.014473  0.000185)
133:   3125.95   0.000058    0.29  0.000006  ( 0.001148  0.000389 -0.002084)
134:   3157.05   0.001219    6.16  0.000121  ( 0.000105  0.009716  0.005109)
135:   3208.12   0.000419    2.12  0.000041  (-0.001193 -0.003262  0.005353)
136:   3420.52   0.116425  588.36  0.010622  ( 0.059218  0.070121  0.046883)
137:   3499.81   0.082256  415.69  0.007334  ( 0.048186  0.014915  0.069210)
138:   3538.31   0.011510   58.17  0.001015  ( 0.022135  0.001705 -0.022853)
139:   3681.23   0.005623   28.42  0.000477  ( 0.000431  0.013467 -0.017180)
140:   3737.55   0.004818   24.35  0.000402  ( 0.018210  0.007664  0.003451)

* The epsilon (eps) is given for a Dirac delta lineshape.
** The dipole moment derivative (T) already includes vibrational overlap.

The first frequency considered to be a vibration is 6
The total number of vibrations considered is 135


--------------------------
THERMOCHEMISTRY AT 298.15K
--------------------------

Temperature         ...   298.15 K
Pressure            ...     1.00 atm
Total Mass          ...   376.37 AMU
Quasi RRHO          ...     True
Cut-Off Frequency   ...     1.00 cm^-1

Throughout the following assumptions are being made:
  (1) The electronic state is orbitally nondegenerate
  (2) There are no thermally accessible electronically excited states
  (3) Hindered rotations indicated by low frequency modes are not
      treated as such but are treated as vibrations and this may
      cause some error
  (4) All equations used are the standard statistical mechanics
      equations for an ideal gas
  (5) All vibrations are strictly harmonic

freq.      20.75  E(vib)   ...       0.56 
freq.      27.26  E(vib)   ...       0.55 
freq.      38.02  E(vib)   ...       0.54 
freq.      45.36  E(vib)   ...       0.53 
freq.      55.26  E(vib)   ...       0.52 
freq.      68.27  E(vib)   ...       0.50 
freq.      94.49  E(vib)   ...       0.47 
freq.     104.88  E(vib)   ...       0.46 
freq.     115.34  E(vib)   ...       0.44 
freq.     121.77  E(vib)   ...       0.44 
freq.     130.78  E(vib)   ...       0.43 
freq.     152.02  E(vib)   ...       0.40 
freq.     164.14  E(vib)   ...       0.39 
freq.     171.80  E(vib)   ...       0.38 
freq.     194.33  E(vib)   ...       0.36 
freq.     202.21  E(vib)   ...       0.35 
freq.     222.56  E(vib)   ...       0.33 
freq.     242.62  E(vib)   ...       0.31 
freq.     275.91  E(vib)   ...       0.28 
freq.     289.92  E(vib)   ...       0.27 
freq.     303.56  E(vib)   ...       0.26 
freq.     326.38  E(vib)   ...       0.24 
freq.     331.70  E(vib)   ...       0.24 
freq.     334.37  E(vib)   ...       0.24 
freq.     361.09  E(vib)   ...       0.22 
freq.     370.02  E(vib)   ...       0.21 
freq.     391.94  E(vib)   ...       0.20 
freq.     403.31  E(vib)   ...       0.19 
freq.     414.57  E(vib)   ...       0.19 
freq.     416.12  E(vib)   ...       0.18 
freq.     436.13  E(vib)   ...       0.17 
freq.     444.45  E(vib)   ...       0.17 
freq.     460.18  E(vib)   ...       0.16 
freq.     489.20  E(vib)   ...       0.15 
freq.     495.88  E(vib)   ...       0.14 
freq.     509.49  E(vib)   ...       0.14 
freq.     514.64  E(vib)   ...       0.13 
freq.     539.75  E(vib)   ...       0.12 
freq.     550.57  E(vib)   ...       0.12 
freq.     570.65  E(vib)   ...       0.11 
freq.     596.90  E(vib)   ...       0.10 
freq.     603.63  E(vib)   ...       0.10 
freq.     632.96  E(vib)   ...       0.09 
freq.     658.53  E(vib)   ...       0.08 
freq.     668.59  E(vib)   ...       0.08 
freq.     671.55  E(vib)   ...       0.08 
freq.     679.80  E(vib)   ...       0.08 
freq.     709.52  E(vib)   ...       0.07 
freq.     729.56  E(vib)   ...       0.06 
freq.     745.48  E(vib)   ...       0.06 
freq.     751.85  E(vib)   ...       0.06 
freq.     772.31  E(vib)   ...       0.05 
freq.     778.20  E(vib)   ...       0.05 
freq.     786.52  E(vib)   ...       0.05 
freq.     834.53  E(vib)   ...       0.04 
freq.     842.71  E(vib)   ...       0.04 
freq.     848.43  E(vib)   ...       0.04 
freq.     864.73  E(vib)   ...       0.04 
freq.     869.76  E(vib)   ...       0.04 
freq.     894.67  E(vib)   ...       0.03 
freq.     920.65  E(vib)   ...       0.03 
freq.     932.49  E(vib)   ...       0.03 
freq.    1002.61  E(vib)   ...       0.02 
freq.    1016.55  E(vib)   ...       0.02 
freq.    1025.33  E(vib)   ...       0.02 
freq.    1035.25  E(vib)   ...       0.02 
freq.    1037.89  E(vib)   ...       0.02 
freq.    1041.56  E(vib)   ...       0.02 
freq.    1047.45  E(vib)   ...       0.02 
freq.    1052.32  E(vib)   ...       0.02 
freq.    1086.78  E(vib)   ...       0.02 
freq.    1088.15  E(vib)   ...       0.02 
freq.    1103.13  E(vib)   ...       0.02 
freq.    1111.87  E(vib)   ...       0.01 
freq.    1158.51  E(vib)   ...       0.01 
freq.    1163.55  E(vib)   ...       0.01 
freq.    1189.96  E(vib)   ...       0.01 
freq.    1199.57  E(vib)   ...       0.01 
freq.    1229.87  E(vib)   ...       0.01 
freq.    1248.80  E(vib)   ...       0.01 
freq.    1257.34  E(vib)   ...       0.01 
freq.    1273.40  E(vib)   ...       0.01 
freq.    1290.80  E(vib)   ...       0.01 
freq.    1298.27  E(vib)   ...       0.01 
freq.    1309.84  E(vib)   ...       0.01 
freq.    1318.61  E(vib)   ...       0.01 
freq.    1337.31  E(vib)   ...       0.01 
freq.    1357.97  E(vib)   ...       0.01 
freq.    1362.51  E(vib)   ...       0.01 
freq.    1372.31  E(vib)   ...       0.01 
freq.    1375.81  E(vib)   ...       0.01 
freq.    1386.97  E(vib)   ...       0.00 
freq.    1389.95  E(vib)   ...       0.00 
freq.    1392.62  E(vib)   ...       0.00 
freq.    1402.90  E(vib)   ...       0.00 
freq.    1409.48  E(vib)   ...       0.00 
freq.    1412.75  E(vib)   ...       0.00 
freq.    1419.38  E(vib)   ...       0.00 
freq.    1423.07  E(vib)   ...       0.00 
freq.    1444.37  E(vib)   ...       0.00 
freq.    1453.17  E(vib)   ...       0.00 
freq.    1478.43  E(vib)   ...       0.00 
freq.    1480.17  E(vib)   ...       0.00 
freq.    1486.73  E(vib)   ...       0.00 
freq.    1491.38  E(vib)   ...       0.00 
freq.    1497.42  E(vib)   ...       0.00 
freq.    1498.91  E(vib)   ...       0.00 
freq.    1501.95  E(vib)   ...       0.00 
freq.    1521.38  E(vib)   ...       0.00 
freq.    1536.94  E(vib)   ...       0.00 
freq.    1563.97  E(vib)   ...       0.00 
freq.    1591.04  E(vib)   ...       0.00 
freq.    1658.51  E(vib)   ...       0.00 
freq.    1725.56  E(vib)   ...       0.00 
freq.    1753.94  E(vib)   ...       0.00 
freq.    2901.52  E(vib)   ...       0.00 
freq.    2948.17  E(vib)   ...       0.00 
freq.    2998.66  E(vib)   ...       0.00 
freq.    3000.06  E(vib)   ...       0.00 
freq.    3012.71  E(vib)   ...       0.00 
freq.    3026.80  E(vib)   ...       0.00 
freq.    3047.36  E(vib)   ...       0.00 
freq.    3048.75  E(vib)   ...       0.00 
freq.    3074.20  E(vib)   ...       0.00 
freq.    3074.41  E(vib)   ...       0.00 
freq.    3096.04  E(vib)   ...       0.00 
freq.    3100.17  E(vib)   ...       0.00 
freq.    3125.95  E(vib)   ...       0.00 
freq.    3157.05  E(vib)   ...       0.00 
freq.    3208.12  E(vib)   ...       0.00 
freq.    3420.52  E(vib)   ...       0.00 
freq.    3499.81  E(vib)   ...       0.00 
freq.    3538.31  E(vib)   ...       0.00 
freq.    3681.23  E(vib)   ...       0.00 
freq.    3737.55  E(vib)   ...       0.00 

------------
INNER ENERGY
------------

The inner energy is: U= E(el) + E(ZPE) + E(vib) + E(rot) + E(trans)
    E(el)   - is the total energy from the electronic structure calculation
              = E(kin-el) + E(nuc-el) + E(el-el) + E(nuc-nuc)
    E(ZPE)  - the the zero temperature vibrational energy from the frequency calculation
    E(vib)  - the the finite temperature correction to E(ZPE) due to population
              of excited vibrational states
    E(rot)  - is the rotational thermal energy
    E(trans)- is the translational thermal energy

Summary of contributions to the inner energy U:
Electronic energy                ...  -1329.66675444 Eh
Zero point energy                ...      0.36953408 Eh     231.89 kcal/mol
Thermal vibrational correction   ...      0.02207311 Eh      13.85 kcal/mol
Thermal rotational correction    ...      0.00141627 Eh       0.89 kcal/mol
Thermal translational correction ...      0.00141627 Eh       0.89 kcal/mol
-----------------------------------------------------------------------
Total thermal energy                  -1329.27231470 Eh


Summary of corrections to the electronic energy:
(perhaps to be used in another calculation)
Total thermal correction                  0.02490566 Eh      15.63 kcal/mol
Non-thermal (ZPE) correction              0.36953408 Eh     231.89 kcal/mol
-----------------------------------------------------------------------
Total correction                          0.39443974 Eh     247.51 kcal/mol


--------
ENTHALPY
--------

The enthalpy is H = U + kB*T
                kB is Boltzmann's constant
Total thermal energy              ...  -1329.27231470 Eh 
Thermal Enthalpy correction       ...      0.00094421 Eh       0.59 kcal/mol
-----------------------------------------------------------------------
Total Enthalpy                    ...  -1329.27137049 Eh


Note: Only C1 symmetry has been detected, increase convergence thresholds 
      if your molecule has a higher symmetry. Symmetry factor of 1.0 is   
      used for the rotational entropy correction. 
 

Note: Rotational entropy computed according to Herzberg 
Infrared and Raman Spectra, Chapter V,1, Van Nostrand Reinhold, 1945 
Point Group:  C1, Symmetry Number:   1  
Rotational constants in cm-1:     0.008010     0.005047     0.003468 

Vibrational entropy computed according to the QRRHO of S. Grimme
Chem.Eur.J. 2012 18 9955 using a reference frequency of 100.0 cm-1


-------
ENTROPY
-------

The entropy contributions are T*S = T*(S(el)+S(vib)+S(rot)+S(trans))
     S(el)   - electronic entropy
     S(vib)  - vibrational entropy
     S(rot)  - rotational entropy
     S(trans)- translational entropy
The entropies will be listed as multiplied by the temperature to get
units of energy

Electronic entropy                ...      0.00000000 Eh      0.00 kcal/mol
Vibrational entropy               ...      0.03895229 Eh     24.44 kcal/mol
Rotational entropy                ...      0.01696043 Eh     10.64 kcal/mol
Translational entropy             ...      0.02074837 Eh     13.02 kcal/mol
-----------------------------------------------------------------------
Final entropy term                ...      0.07666109 Eh     48.11 kcal/mol

In case the symmetry of your molecule has not been determined correctly
or in case you have a reason to use a different symmetry number we print 
out the resulting rotational entropy values for sn=1,12:

 non-linear molecules -----------------------------------
|  sn= 1 | S(rot)=       0.01696043 Eh     10.64 kcal/mol|
|  sn= 2 | S(rot)=       0.01630598 Eh     10.23 kcal/mol|
|  sn= 3 | S(rot)=       0.01592314 Eh      9.99 kcal/mol|
|  sn= 4 | S(rot)=       0.01565152 Eh      9.82 kcal/mol|
|  sn= 5 | S(rot)=       0.01544083 Eh      9.69 kcal/mol|
|  sn= 6 | S(rot)=       0.01526869 Eh      9.58 kcal/mol|
|  sn= 7 | S(rot)=       0.01512314 Eh      9.49 kcal/mol|
|  sn= 8 | S(rot)=       0.01499706 Eh      9.41 kcal/mol|
|  sn= 9 | S(rot)=       0.01488586 Eh      9.34 kcal/mol|
|  sn=10 | S(rot)=       0.01478638 Eh      9.28 kcal/mol|
|  sn=11 | S(rot)=       0.01469639 Eh      9.22 kcal/mol|
|  sn=12 | S(rot)=       0.01461423 Eh      9.17 kcal/mol|
 linear molecules ---------------------------------------
|  Dinfh | S(rot)=       0.01067375 Eh      6.70 kcal/mol|
|  Cinfv | S(rot)=       0.01132820 Eh      7.11 kcal/mol|
 --------------------------------------------------------


-------------------
GIBBS FREE ENERGY
-------------------

The Gibbs free energy is G = H - T*S

Total enthalpy                    ...  -1329.27137049 Eh 
Total entropy correction          ...     -0.07666109 Eh    -48.11 kcal/mol
-----------------------------------------------------------------------
Final Gibbs free energy         ...  -1329.34803159 Eh

For completeness - the Gibbs free energy minus the electronic energy
G-E(el)                           ...      0.31872285 Eh    200.00 kcal/mol


Maximum memory used throughout the entire PROP-calculation: 165.9 MB

--------------------------------
SUGGESTED CITATIONS FOR THIS RUN
--------------------------------

Below you find a list of papers that are relevant to this ORCA run
We neither can nor want to force you to cite these papers, but we appreciate if you do
You receive ORCA, which is the product of decades of hard work by many enthusiastic individuals, for free
The only thing we kindly ask in return is that you cite our papers,
We deeply appreciate it, if you show your appreciation for ORCA by not just citing the generic ORCA reference.

Please note that relegating all ORCA citations to the supporting information does *not* help us.
SI sections are not indexed - citations you put there will not count into any citation statistics
But we need these citations in order to attract the funding resources that allow us to do what we are doing

Therefore, if you are a happy ORCA user, please consider citing a few of the papers listed below in the main body of your paper

In addition to the list printed below, the program has created the file m1_00_Vitamin_B2-GFN1_0008-B97-3C-TZ.bibtex that contains the list in bibtex format
You can import this file easily into all common literature databanks and citation aid programs


List of essential papers. We consider these as the minimum necessary citations

  1. Neese,F.
     Software update: the ORCA program system, version 5.0
     WIRES Comput. Molec. Sci., 2022 12(1)e1606
     doi.org/10.1002/wcms.1606

List of papers to cite with high priority. The work reported in these papers was absolutely
necessary for this run to complete.
Our perspective: the developers of density functionals and basis sets usually get cited in chemistry papers
Good! But without the algorithms to do something with them, the functionals or basis sets would not do anything.
Hence, in our opinion, the algorithm design and method developments papers are equally worthy of getting cited

  1. Neese,F.
     An improvement of the resolution of the identity approximation for the formation of the Coulomb matrix
     J. Comp. Chem., 2003 24(14)1740-1747
     doi.org/10.1002/jcc.10318
  2. Bykov,D.; Petrenko,T.; Izsak,R.; Kossmann,S.; Becker,U.; Valeev,E.; Neese,F.
     Efficient implementation of the analytic second derivatives of Hartree-Fock and hybrid DFT energies: a detailed analysis of different approximations
     Molec. Phys., 2015 113 1961-1977
     doi.org/10.1080/00268976.2015.1025114
  3. Neese,F.
     The SHARK Integral Generation and Digestion System
     J. Comp. Chem., 2022  1-16
     doi.org/10.1002/jcc.26942
  4. Grimme,S.; Antony,J.; Ehrlich,S.; Krieg,H.
     A consistent and accurate ab initio parametrization of density functional dispersion correction (DFT-D) for the 94 elements H-Pu
     J. Chem. Phys., 2010 132 154104
     doi.org/10.1063/1.3382344
  5. Grimme,S.; Ehrlich,S.; Goerigk,L.
     Effect of the damping function in dispersion corrected density functional theory
     J. Comput. Chem., 2011 32(7)1456-1465
     doi.org/10.1002/jcc.21759

List of suggested additional citations. These are papers that are important in the 'surrounding' of 
of this run, or papers that preceded the highly important papers. If you like your results we are grateful for a citation.

  1. Neese,F.
     The ORCA program system
     WIRES Comput. Molec. Sci., 2012 2(1)73-78
     doi.org/10.1002/wcms.81
  2. Neese,F.
     Software update: the ORCA program system, version 4.0
     WIRES Comput. Molec. Sci., 2018 8(1)1-6
     doi.org/10.1002/wcms.1327
  3. Neese,F.; Wennmohs,F.; Becker,U.; Riplinger,C.
     The ORCA quantum chemistry program package
     J. Chem. Phys., 2020 152 Art. No. L224108
     doi.org/10.1063/5.0004608

List of optional additional citations

  1. Neese,F.
     Approximate second-order SCF convergence for spin unrestricted wavefunctions
     Chem. Phys. Lett., 2000 325(1-3)93-98
     doi.org/10.1016/s0009-2614(00)00662-x

Timings for individual modules:

Sum of individual times          ...      893.202 sec (=  14.887 min)
Startup calculation              ...       61.781 sec (=   1.030 min)   6.9 %
SCF iterations                   ...      189.178 sec (=   3.153 min)  21.2 %
Property integrals               ...      196.284 sec (=   3.271 min)  22.0 %
SCF Response                     ...      279.664 sec (=   4.661 min)  31.3 %
Property calculations            ...       73.387 sec (=   1.223 min)   8.2 %
SCF Gradient evaluation          ...       92.734 sec (=   1.546 min)  10.4 %
Geometry relaxation              ...        0.173 sec (=   0.003 min)   0.0 %
                             ****ORCA TERMINATED NORMALLY****
TOTAL RUN TIME: 0 days 0 hours 14 minutes 55 seconds 993 msec
