
                                 *****************
                                 * O   R   C   A *
                                 *****************

                                            #,                                       
                                            ###                                      
                                            ####                                     
                                            #####                                    
                                            ######                                   
                                           ########,                                 
                                     ,,################,,,,,                         
                               ,,#################################,,                 
                          ,,##########################################,,             
                       ,#########################################, ''#####,          
                    ,#############################################,,   '####,        
                  ,##################################################,,,,####,       
                ,###########''''           ''''###############################       
              ,#####''   ,,,,##########,,,,          '''####'''          '####       
            ,##' ,,,,###########################,,,                        '##       
           ' ,,###''''                  '''############,,,                           
         ,,##''                                '''############,,,,        ,,,,,,###''
      ,#''                                            '''#######################'''  
     '                                                          ''''####''''         
             ,#######,   #######,   ,#######,      ##                                
            ,#'     '#,  ##    ##  ,#'     '#,    #''#        ,####,   ,####,        
            ##       ##  ##   ,#'  ##            #'  '#       #'       #'  '#        
            ##       ##  #######   ##           ,######,      #####,   #    #        
            '#,     ,#'  ##    ##  '#,     ,#' ,#      #,     #,   #   #,  ,#        
             '#######'   ##     ##  '#######'  #'      '#     '####' # '####'        



                #########################################################
                #                        -***-                          #
                #          Department of theory and spectroscopy        #
                #                                                       #
                #                      Frank Neese                      #
                #                                                       #
                #     Directorship, Architecture, Infrastructure        #
                #                    SHARK, DRIVERS                     #
                #        Core code/Algorithms in most modules           #
                #                                                       #
                #        Max Planck Institute fuer Kohlenforschung      #
                #                Kaiser Wilhelm Platz 1                 #
                #                 D-45470 Muelheim/Ruhr                 #
                #                      Germany                          #
                #                                                       #
                #                  All rights reserved                  #
                #                        -***-                          #
                #########################################################


                         Program Version 6.0.1  -  RELEASE   -


 With contributions from (in alphabetic order):
[Max-Planck-Institut fuer Kohlenforschung]                               
  Daniel Aravena         : Magnetic Suceptibility                        
  Michael Atanasov       : Ab Initio Ligand Field Theory (pilot matlab implementation)
  Alexander A. Auer      : GIAO ZORA, VPT2 properties, NMR spectrum      
  Ute Becker             : All parallelization in ORCA, NUMFREQ, NUMCALC 
  Giovanni Bistoni       : ED, misc. LED, open-shell LED, HFLD           
  Martin Brehm           : Molecular dynamics                            
  Dmytro Bykov           : pre 5.0 version of the SCF Hessian            
  Marcos Casanova-Páez   : Triplet and SCS-CIS(D). UHF-(DLPNO)-IP/EA/STEOM-CCSD. UHF-CVS-IP/STEOM-CCSD   
  Vijay G. Chilkuri      : MRCI spin determinant printing, contributions to CSF-ICE 
  Pauline Colinet        : FMM embedding                                 
  Dipayan Datta          : RHF DLPNO-CCSD density                        
  Achintya Kumar Dutta   : EOM-CC, STEOM-CC                              
  Nicolas Foglia         : Exact transition moments, OPA infrastructure, MCD improvements    
  Dmitry Ganyushin       : Spin-Orbit,Spin-Spin,Magnetic field MRCI      
  Miquel Garcia-Rates    : C-PCM and meta-GGA Hessian, CCSD/C-PCM, Gaussian charge scheme 
  Tiago L. C. Gouveia    : GS-ROHF, GS-ROCIS                             
  Yang Guo               : DLPNO-NEVPT2, F12-NEVPT2, CIM, IAO-localization        
  Andreas Hansen         : Spin unrestricted coupled pair/coupled cluster methods 
  Ingolf Harden          : AUTO-CI MPn and infrastructure                
  Benjamin Helmich-Paris : MC-RPA, TRAH-(SCF,CASSCF), AVAS, COSX integrals, SCF dyn. polar. 
  Lee Huntington         : MR-EOM, pCC                                   
  Robert Izsak           : Overlap fitted RIJCOSX, COSX-SCS-MP3, EOM     
  Riya Kayal             : Wick's Theorem for AUTO-CI, AUTO-CI UHF-CCSDT 
  Emily Kempfer          : AUTO-CI, RHF CISDT and CCSDT                  
  Christian Kollmar      : KDIIS, OOCD, Brueckner-CCSD(T), CCSD density, CASPT2, CASPT2-K, improved NEVPT2 
  Axel Koslowski         : Symmetry handling                             
  Simone Kossmann        : meta-GGA functionals, TD-DFT gradient, OOMP2, (MP2 Hessian; deprecated post 5.0) 
  Lucas Lang             : DCDCAS                                        
  Marvin Lechner         : AUTO-CI (C++ implementation), FIC-MRCC        
  Spencer Leger          : CASSCF response                               
  Dagmar Lenk            : GEPOL surface, SMD, ORCA-2-JSON               
  Dimitrios Liakos       : Extrapolation schemes; Compound Job, initial MDCI parallelization 
  Dimitrios Manganas     : Further ROCIS development; embedding schemes. LFT, Crystal Embedding 
  Dimitrios Pantazis     : SARC Basis sets                               
  Anastasios Papadopoulos: AUTO-CI, single reference methods and gradients 
  Taras Petrenko         : pre 6.0 DFT Hessian and TD-DFT gradient, (ASA, deprecated), ECA, 1-Electron XAS/XES, NRVS 
  Peter Pinski           : DLPNO-MP2, DLPNO-MP2 Gradient                 
  Christoph Reimann      : Effective Core Potentials                     
  Marius Retegan         : Local ZFS, SOC                                
  Christoph Riplinger    : Optimizer, TS searches, QM/MM, DLPNO-CCSD(T), (RO)-DLPNO pert. Triples 
  Michael Roemelt        : Original ROCIS implementation                 
  Masaaki Saitow         : Open-shell DLPNO-CCSD energy and density      
  Barbara Sandhoefer     : DKH picture change effects                    
  Kantharuban Sivalingam : CASSCF convergence/infrastructure, NEVPT2 and variants, FIC-MRCI 
  Bernardo de Souza      : ESD, SOC TD-DFT                               
  Georgi L. Stoychev     : AutoAux, RI-MP2 NMR, DLPNO-MP2 response, X2C  
  Van Anh Tran           : RI-MP2 g-tensors                              
  Willem Van den Heuvel  : Paramagnetic NMR                              
  Zikuan Wang            : NOTCH, Electric field optimization            
  Frank Wennmohs         : Technical directorship and infrastructure     
  Hang Xu                : AUTO-CI-Response properties                   
                                                                         
[FACCTs GmbH]                                                            
  Markus Bursch, Miquel Garcia-Rates, Christoph Riplinger, Bernardo de Souza, Georgi L. Stoychev 
                                                                 
  APM, Basis sets (HGBS, AHGBS, def-TZVP (Ac-Lr), def2-XVPD (La-Lu)), CI-OPT, improved COSX, DLPNO-Multilevel,           
  DOCKER, DRACO, updates on ESD, GOAT, IRC, LR-CPCM, MBIS, meta-GGA TD-DFT gradient, ML-optimized integration grids, 
  MM, NACMEs, nearIR, NEB, NEB-TS, NL-DFT gradient (VV10), 2- and 3-layer-ONIOM, interface openCOSMO-RS, QMMM,   
  Crystal-QMMM, SF, symmetry and pop. for TD-DFT, r2SCAN hybrids, SOLVATOR                                   
                                                                         
[Other institutions]                                                     
  V. Asgeirsson          : NEB                                           
  Christoph Bannwarth    : sTDA-DFT, sTD-DFT, PBEh-3c, B97-3c, D3        
  Sebastian Ehlert       : rSCAN, r2SCAN, r2SCAN-3c, D4, dhf basis sets  
  Marvin Friede          : D4 for Fr, Ra, Ac-Lr                          
  Lars Goerigk           : TD-DFT with DH, B97 family of functionals     
  Stefan Grimme          : VdW corrections, initial TS optimization, DFT functionals, gCP, sTDA/sTD-DF 
  Waldemar Hujo          : DFT-NL                                        
  H. Jonsson             : NEB                                           
  Holger Kruse           : gCP                                           
  Marcel Mueller         : wB97X-3c, vDZP basis set                      
  Hagen Neugebauer       : wr2SCAN                                       
  Tobias Risthaus        : range-separated hybrid DFT                    
  Lukas Wittmann         : regularized MP2, r2SCAN double-hybrids, wr2SCAN        
                                                                         
We gratefully acknowledge several colleagues who have allowed us to      
interface, adapt or use parts of their codes:                            
  Ed Valeev, F. Pavosevic, A. Kumar             : LibInt (2-el integral package), F12 methods 
  Garnet Chan, S. Sharma, J. Yang, R. Olivares  : DMRG                   
  Ulf Ekstrom                                   : XCFun DFT Library      
  Mihaly Kallay                                 : mrcc  (arbitrary order and MRCC methods)
  Frank Weinhold                                : gennbo (NPA and NBO analysis)           
  Simon Mueller                                 : openCOSMO-RS                            
  Christopher J. Cramer and Donald G. Truhlar   : smd solvation model                     
  S Lehtola, MJT Oliveira, MAL Marques          : LibXC Library                           
  Liviu Ungur et al                             : ANISO software                          


 Your calculation uses the libint2 library for the computation of 2-el integrals
 For citations please refer to: http://libint.valeyev.net

 Your ORCA version has been built with support for libXC version: 6.2.2
 For citations please refer to: https://libxc.gitlab.io

 This ORCA versions uses:
   CBLAS   interface :  Fast vector & matrix operations
   LAPACKE interface :  Fast linear algebra routines
   SCALAPACK package :  Parallel linear algebra routines
   Shared memory     :  Shared parallel matrices
   BLAS/LAPACK       :  OpenBLAS 0.3.27  USE64BITINT DYNAMIC_ARCH NO_AFFINITY Zen SINGLE_THREADED
        Core in use  :  Zen
   Copyright (c) 2011-2014, The OpenBLAS Project


NOTE: MaxCore=6000 MB was set to SCF,MP2,MDCI,CIPSI,MRCI and CIS
      => If you want to overwrite this, your respective input block should be placed after the MaxCore statement
Your calculation utilizes the atom-pairwise dispersion correction
with the Becke-Johnson damping scheme (D3BJ)


Your calculation employs the composite approach B97-3c by Grimme and coworkers.
For the correct reference, please check the publication list of the Grimme group:
http://www.thch.uni-bonn.de/tc/index.php?section=publikationen&subsection=grimme#2017
   

XCFun DFT library Copyright 2009-2010 Ulf Ekstrom and contributors.
See http://admol.org/xcfun for more information.
This is free software; see the source code for copying conditions.
There is ABSOLUTELY NO WARRANTY; not even for MERCHANTABILITY or FITNESS FOR A PARTICULAR PURPOSE.
For details see the documentation.
Scientific users of this library should cite U. Ekstrom, L. Visscher, R. Bast, A. J. Thorvaldsen and K. Ruud;
J.Chem.Theor.Comp. 2010, DOI: 10.1021/ct100117s
XCFun Version 0.99 

================================================================================

----- Orbital basis set information -----
Your calculation utilizes the basis: def2-mTZVP
----- AuxJ basis set information -----
Your calculation utilizes the basis: def2-mTZVP/J
================================================================================
                                        WARNINGS
                       Please study these warnings very carefully!
================================================================================


WARNING: Geometry Optimization
  ===> : Switching off AutoStart
         For restart on a previous wavefunction, please use MOREAD

================================================================================
                                       INPUT FILE
================================================================================
NAME = m1_00_Vitamin_A-QM3_001-B97-3C-TZ.inp
|  1> %pal nprocs 16 end
|  2> %MaxCore 6000
|  3> # put your comments here
|  4> ! B97-3C  OPT  FREQ DEFGRID3 NOTRAH
|  5> %scf MaxIter 800 end
|  6> %output
|  7> Print [P_Hirshfeld] 1
|  8> end
|  9> %geom
| 10> MaxIter 3000
| 11>  TolE 1e-6 #TolE 5e-6 Energy change (a.u.)
| 12>  TolRMSG 3e-5 #TolRMSG 1e-4 RMS gradient (a.u.)
| 13>  TolMaxG 1e-4 #TolMaxG 3e-3 Max. element of gradient (a.u.)
| 14>  TolRMSD 2e-3 #TolRMSD 2e-3 RMS displacement (a.u.)
| 15>  TolMaxD 4e-3 #TolMaxD 4e-3 Max. displacement (a.u.)
| 16> end
| 17> * xyz 0 1
| 18>  O       8.45417271       0.29481186       0.77495773
| 19>  C      -4.00375176       0.48747824       1.01426830
| 20>  C      -5.42045879       0.85252301       0.58095567
| 21>  C      -5.44128810       1.65272790      -0.69832775
| 22>  C      -3.18394307      -0.00555602      -0.17063403
| 23>  C      -4.85620141       0.82683383      -1.82070648
| 24>  C      -3.56620694       0.15190429      -1.44039034
| 25>  C      -4.09673074      -0.59875675       2.09165577
| 26>  C      -3.29894452       1.70980943       1.60821227
| 27>  C      -1.88764195      -0.64889093       0.17935522
| 28>  C      -2.77078926      -0.35460143      -2.61846079
| 29>  C      -0.70023192      -0.15383815      -0.15461678
| 30>  C       0.61853285      -0.74549505       0.18297759
| 31>  C       0.61927092      -2.02737509       0.97037843
| 32>  C       1.73068116      -0.11450106      -0.22746101
| 33>  C       3.12169819      -0.53139493      -0.00002788
| 34>  C       4.17248476       0.16185910      -0.44577763
| 35>  C       5.59622271      -0.20219546      -0.24807041
| 36>  C       5.89880681      -1.47535904       0.49219835
| 37>  C       6.55007606       0.60164255      -0.73028964
| 38>  C       8.03516600       0.36623260      -0.58194256
| 39>  H      -5.92248208       1.39566310       1.38600551
| 40>  H      -5.99747774      -0.06117683       0.42503004
| 41>  H      -4.86102536       2.56964118      -0.57573367
| 42>  H      -6.46400724       1.96177552      -0.94608971
| 43>  H      -4.68723414       1.44560572      -2.70967028
| 44>  H      -5.57052621       0.05329504      -2.13095896
| 45>  H      -4.48735617      -1.53257072       1.68900219
| 46>  H      -3.12977640      -0.81034342       2.54187169
| 47>  H      -4.76411149      -0.28405567       2.89420855
| 48>  H      -3.83394903       2.09096204       2.47798769
| 49>  H      -2.28844056       1.46624458       1.92742492
| 50>  H      -3.22636464       2.52170391       0.88827448
| 51>  H      -1.93868483      -1.55696793       0.76713851
| 52>  H      -3.43386945      -0.85023475      -3.33185947
| 53>  H      -1.99545797      -1.05577616      -2.32709296
| 54>  H      -2.29582379       0.47644351      -3.14881411
| 55>  H      -0.66720252       0.76823631      -0.72419147
| 56>  H       1.62578996      -2.38567488       1.16607295
| 57>  H       0.11672810      -1.88839981       1.93002591
| 58>  H       0.07983872      -2.80902399       0.43121926
| 59>  H       1.61682373       0.80589709      -0.79136903
| 60>  H       3.28580802      -1.44333217       0.55644650
| 61>  H       3.99101753       1.07653275      -1.00136760
| 62>  H       5.50722487      -1.42792255       1.50970989
| 63>  H       6.96593917      -1.65549268       0.55064423
| 64>  H       5.42239485      -2.32416400      -0.00295746
| 65>  H       6.25160802       1.50149190      -1.26078572
| 66>  H       8.57787134       1.16446035      -1.11066467
| 67>  H       8.32842465      -0.58559208      -1.04211032
| 68>  H       8.22339695       1.12491574       1.20434909
| 69> *
| 70> 
| 71> 
| 72> 
| 73> 
| 74>                          ****END OF INPUT****
================================================================================

                       *****************************
                       * Geometry Optimization Run *
                       *****************************

Geometry optimization settings:
Update method            Update   .... BFGS
Choice of coordinates    CoordSys .... (2022) Redundant Internals
Initial Hessian          InHess   .... Almloef's Model
Max. no of cycles        MaxIter  .... 3000

Convergence Tolerances:
Energy Change            TolE     ....  1.0000e-06 Eh
Max. Gradient            TolMAXG  ....  1.0000e-04 Eh/bohr
RMS Gradient             TolRMSG  ....  3.0000e-05 Eh/bohr
Max. Displacement        TolMAXD  ....  4.0000e-03 bohr
RMS Displacement         TolRMSD  ....  2.0000e-03 bohr
Strict Convergence                .... False

------------------------------------------------------------------------------
                        ORCA OPTIMIZATION COORDINATE SETUP
------------------------------------------------------------------------------

The optimization will be done in redundant internal coordinates (2022)
Making redundant internal coordinates   ...  (2022 redundants) done
Evaluating the initial hessian          ...  (Almloef) done
Evaluating the coordinates              ...  done
Calculating the B-matrix                .... done
Calculating the G-matrix                .... done
Diagonalizing the G-matrix              .... done
Small eigenvalue found = 1.013e-03
Small eigenvalue found = 3.078e-03
Small eigenvalue found = 5.733e-03
Small eigenvalue found = 7.296e-03
Small eigenvalue found = 1.328e-02
Small eigenvalue found = 1.547e-02
Small eigenvalue found = 2.272e-02
Small eigenvalue found = 2.511e-02
The first mode is                       ....   94
The number of degrees of freedom        ....  147

    -----------------------------------------------------------------
                    Redundant Internal Coordinates


    -----------------------------------------------------------------
         Definition                    Initial Value    Approx d2E/dq
    -----------------------------------------------------------------
      1. B(C   2,C   1)                  1.5258         0.379379   
      2. B(C   3,C   2)                  1.5091         0.403414   
      3. B(C   4,C   1)                  1.5229         0.383475   
      4. B(C   5,C   3)                  1.5113         0.400075   
      5. B(C   6,C   5)                  1.5047         0.409894   
      6. B(C   6,C   4)                  1.3354         0.763668   
      7. B(C   7,C   1)                  1.5327         0.369823   
      8. B(C   8,C   1)                  1.5309         0.372359   
      9. B(C   9,C   4)                  1.4889         0.434489   
     10. B(C  10,C   6)                  1.5090         0.403532   
     11. B(C  11,C   9)                  1.3291         0.781395   
     12. B(C  12,C  11)                  1.4843         0.441852   
     13. B(C  13,C  12)                  1.5044         0.410414   
     14. B(C  14,C  12)                  1.3429         0.742712   
     15. B(C  15,C  14)                  1.4698         0.465956   
     16. B(C  16,C  15)                  1.3355         0.763410   
     17. B(C  17,C  16)                  1.4828         0.444329   
     18. B(C  18,C  17)                  1.5035         0.411778   
     19. B(C  19,C  17)                  1.3374         0.758098   
     20. B(C  20,C  19)                  1.5109         0.400681   
     21. B(C  20,O   0)                  1.4219         0.497686   
     22. B(H  21,C   2)                  1.0932         0.355863   
     23. B(H  22,C   2)                  1.0918         0.357676   
     24. B(H  23,C   3)                  1.0920         0.357464   
     25. B(H  24,C   3)                  1.0967         0.351286   
     26. B(H  25,C   5)                  1.0962         0.351973   
     27. B(H  26,C   5)                  1.0977         0.350096   
     28. B(H  27,C   7)                  1.0894         0.360935   
     29. B(H  28,C   7)                  1.0874         0.363540   
     30. B(H  29,C   7)                  1.0902         0.359842   
     31. B(H  30,C   8)                  1.0900         0.360151   
     32. B(H  31,C   8)                  1.0874         0.363617   
     33. B(H  32,C   8)                  1.0875         0.363364   
     34. B(H  33,C   9)                  1.0829         0.369600   
     35. B(H  34,C  10)                  1.0928         0.356383   
     36. B(H  35,C  10)                  1.0852         0.366493   
     37. B(H  36,C  10)                  1.0943         0.354450   
     38. B(H  37,C  11)                  1.0843         0.367707   
     39. B(H  38,C  13)                  1.0862         0.365208   
     40. B(H  39,C  13)                  1.0921         0.357270   
     41. B(H  40,C  13)                  1.0921         0.357349   
     42. B(H  41,C  14)                  1.0854         0.366240   
     43. B(H  42,C  15)                  1.0808         0.372417   
     44. B(H  43,C  16)                  1.0855         0.366147   
     45. B(H  44,C  18)                  1.0913         0.358396   
     46. B(H  45,C  18)                  1.0838         0.368388   
     47. B(H  46,C  18)                  1.0921         0.357372   
     48. B(H  47,C  19)                  1.0864         0.364911   
     49. B(H  48,C  20)                  1.1006         0.346391   
     50. B(H  49,C  20)                  1.0971         0.350772   
     51. B(H  50,O   0)                  0.9627         0.514907   
     52. A(C  20,O   0,H  50)          108.1616         0.355886   
     53. A(C   2,C   1,C   7)          108.2309         0.363682   
     54. A(C   2,C   1,C   4)          110.8750         0.365945   
     55. A(C   7,C   1,C   8)          108.7272         0.362524   
     56. A(C   4,C   1,C   7)          110.4953         0.364351   
     57. A(C   4,C   1,C   8)          108.2115         0.364777   
     58. A(C   2,C   1,C   8)          110.2812         0.364107   
     59. A(C   1,C   2,H  21)          109.6403         0.324510   
     60. A(H  21,C   2,H  22)          106.1554         0.289992   
     61. A(C   1,C   2,H  22)          109.3319         0.324781   
     62. A(C   1,C   2,C   3)          112.3599         0.369141   
     63. A(C   3,C   2,H  22)          108.3842         0.328082   
     64. A(C   3,C   2,H  21)          110.7616         0.327807   
     65. A(C   2,C   3,C   5)          109.5384         0.372529   
     66. A(C   5,C   3,H  23)          109.6642         0.327600   
     67. A(H  23,C   3,H  24)          106.5150         0.289377   
     68. A(C   5,C   3,H  24)          110.3173         0.326661   
     69. A(C   2,C   3,H  24)          110.7197         0.327108   
     70. A(C   2,C   3,H  23)          110.0436         0.328050   
     71. A(C   1,C   4,C   9)          115.1943         0.374579   
     72. A(C   6,C   4,C   9)          121.5811         0.422764   
     73. A(C   1,C   4,C   6)          123.1999         0.413461   
     74. A(H  25,C   5,H  26)          105.5976         0.288523   
     75. A(C   3,C   5,H  25)          110.6983         0.326766   
     76. A(C   6,C   5,H  26)          108.2547         0.327785   
     77. A(C   3,C   5,H  26)          110.0641         0.326478   
     78. A(C   6,C   5,H  25)          109.0263         0.328074   
     79. A(C   3,C   5,C   6)          112.9104         0.373554   
     80. A(C   4,C   6,C   5)          122.5900         0.418391   
     81. A(C   5,C   6,C  10)          113.8989         0.374108   
     82. A(C   4,C   6,C  10)          123.4951         0.417227   
     83. A(H  28,C   7,H  29)          107.2016         0.291242   
     84. A(H  27,C   7,H  29)          107.4596         0.290912   
     85. A(H  27,C   7,H  28)          107.7640         0.291380   
     86. A(C   1,C   7,H  28)          112.0229         0.324288   
     87. A(C   1,C   7,H  27)          111.6804         0.323905   
     88. A(C   1,C   7,H  29)          110.4883         0.323744   
     89. A(H  30,C   8,H  32)          107.4548         0.291259   
     90. A(C   1,C   8,H  32)          111.7134         0.324626   
     91. A(H  30,C   8,H  31)          107.4710         0.291290   
     92. A(C   1,C   8,H  31)          111.2784         0.324663   
     93. A(C   1,C   8,H  30)          111.2740         0.324153   
     94. A(H  31,C   8,H  32)          107.4300         0.291698   
     95. A(C  11,C   9,H  33)          119.3950         0.368741   
     96. A(C   4,C   9,H  33)          116.6721         0.333943   
     97. A(C   4,C   9,C  11)          123.9051         0.424502   
     98. A(H  34,C  10,H  36)          106.9418         0.289647   
     99. A(C   6,C  10,H  36)          110.6245         0.327608   
    100. A(H  34,C  10,H  35)          108.4051         0.291170   
    101. A(C   6,C  10,H  35)          112.5732         0.329419   
    102. A(C   6,C  10,H  34)          110.0012         0.327902   
    103. A(H  35,C  10,H  36)          108.1018         0.290921   
    104. A(C   9,C  11,C  12)          126.0241         0.425780   
    105. A(C  12,C  11,H  37)          115.5550         0.334590   
    106. A(C   9,C  11,H  37)          118.4207         0.368416   
    107. A(C  13,C  12,C  14)          124.0503         0.416417   
    108. A(C  11,C  12,C  14)          118.6188         0.421932   
    109. A(C  11,C  12,C  13)          117.3309         0.380106   
    110. A(H  39,C  13,H  40)          107.3131         0.290130   
    111. A(H  38,C  13,H  40)          108.0936         0.291133   
    112. A(C  12,C  13,H  40)          110.5625         0.328965   
    113. A(H  38,C  13,H  39)          108.0632         0.291123   
    114. A(C  12,C  13,H  39)          110.5636         0.328953   
    115. A(C  12,C  13,H  38)          112.0762         0.330149   
    116. A(C  12,C  14,C  15)          127.0974         0.425959   
    117. A(C  15,C  14,H  41)          114.8457         0.337336   
    118. A(C  12,C  14,H  41)          118.0568         0.364973   
    119. A(C  14,C  15,C  16)          123.0762         0.428062   
    120. A(C  16,C  15,H  42)          119.3648         0.367749   
    121. A(C  14,C  15,H  42)          117.5590         0.338278   
    122. A(C  15,C  16,C  17)          125.7003         0.424434   
    123. A(C  17,C  16,H  43)          115.8271         0.334665   
    124. A(C  15,C  16,H  43)          118.4723         0.366680   
    125. A(C  18,C  17,C  19)          122.8864         0.418187   
    126. A(C  16,C  17,C  19)          119.2869         0.423904   
    127. A(C  16,C  17,C  18)          117.8265         0.380694   
    128. A(H  45,C  18,H  46)          108.9537         0.291533   
    129. A(H  44,C  18,H  46)          107.4579         0.290276   
    130. A(C  17,C  18,H  46)          110.3120         0.329148   
    131. A(H  44,C  18,H  45)          108.0742         0.291664   
    132. A(C  17,C  18,H  45)          111.4354         0.330804   
    133. A(C  17,C  18,H  44)          110.4906         0.329304   
    134. A(C  17,C  19,C  20)          124.8889         0.416158   
    135. A(C  20,C  19,H  47)          116.5534         0.328799   
    136. A(C  17,C  19,H  47)          118.5536         0.366029   
    137. A(O   0,C  20,C  19)          113.0265         0.383986   
    138. A(H  48,C  20,H  49)          107.2128         0.287889   
    139. A(C  19,C  20,H  49)          110.8982         0.326663   
    140. A(O   0,C  20,H  49)          106.1352         0.336563   
    141. A(C  19,C  20,H  48)          108.9359         0.325988   
    142. A(O   0,C  20,H  48)          110.4606         0.335859   
    143. D(C   3,C   2,C   1,C   7)   -165.8691         0.011473   
    144. D(C   3,C   2,C   1,C   8)     75.3088         0.011473   
    145. D(H  21,C   2,C   1,C   8)    -48.3178         0.011473   
    146. D(C   3,C   2,C   1,C   4)    -44.5270         0.011473   
    147. D(H  21,C   2,C   1,C   7)     70.5043         0.011473   
    148. D(H  21,C   2,C   1,C   4)   -168.1536         0.011473   
    149. D(C   5,C   3,C   2,H  22)    -58.7277         0.012905   
    150. D(H  23,C   3,C   2,H  22)   -179.3620         0.012905   
    151. D(C   5,C   3,C   2,C   1)     62.1975         0.012905   
    152. D(H  23,C   3,C   2,C   1)    -58.4369         0.012905   
    153. D(H  23,C   3,C   2,H  21)     64.5619         0.012905   
    154. D(C   5,C   3,C   2,H  21)   -174.8037         0.012905   
    155. D(C   6,C   4,C   1,C   8)   -107.2290         0.010961   
    156. D(C   6,C   4,C   1,C   7)    133.8362         0.010961   
    157. D(C   6,C   4,C   1,C   2)     13.8361         0.010961   
    158. D(C   9,C   4,C   1,C   2)   -167.9517         0.010961   
    159. D(C   9,C   4,C   1,C   7)    -47.9516         0.010961   
    160. D(H  25,C   5,C   3,C   2)   -169.3596         0.012699   
    161. D(H  25,C   5,C   3,H  23)    -48.4950         0.012699   
    162. D(C   6,C   5,C   3,H  24)   -168.9317         0.012699   
    163. D(C   6,C   5,C   3,C   2)    -46.8103         0.012699   
    164. D(H  25,C   5,C   3,H  24)     68.5190         0.012699   
    165. D(C   6,C   5,C   3,H  23)     74.0543         0.012699   
    166. D(C   4,C   6,C   5,H  26)   -104.7141         0.012444   
    167. D(C   4,C   6,C   5,H  25)    140.8778         0.012444   
    168. D(C   4,C   6,C   5,C   3)     17.3989         0.012444   
    169. D(C  10,C   6,C   4,C   9)      2.9787         0.041738   
    170. D(C  10,C   6,C   4,C   1)   -178.9203         0.041738   
    171. D(C   5,C   6,C   4,C   9)   -178.5630         0.041738   
    172. D(C  10,C   6,C   5,C   3)   -164.0074         0.012444   
    173. D(C   5,C   6,C   4,C   1)     -0.4620         0.041738   
    174. D(C  10,C   6,C   5,H  25)    -40.5285         0.012444   
    175. D(H  28,C   7,C   1,C   8)    -52.4516         0.010934   
    176. D(H  28,C   7,C   1,C   4)     66.1696         0.010934   
    177. D(H  28,C   7,C   1,C   2)   -172.2540         0.010934   
    178. D(H  27,C   7,C   1,C   8)   -173.4471         0.010934   
    179. D(H  27,C   7,C   1,C   4)    -54.8259         0.010934   
    180. D(H  27,C   7,C   1,C   2)     66.7505         0.010934   
    181. D(H  31,C   8,C   1,C   7)     61.1933         0.011075   
    182. D(H  31,C   8,C   1,C   4)    -58.8554         0.011075   
    183. D(H  31,C   8,C   1,C   2)    179.7120         0.011075   
    184. D(H  30,C   8,C   1,C   7)    -58.6337         0.011075   
    185. D(H  30,C   8,C   1,C   4)   -178.6824         0.011075   
    186. D(H  30,C   8,C   1,C   2)     59.8850         0.011075   
    187. D(H  33,C   9,C   4,C   6)   -118.7726         0.012890   
    188. D(H  33,C   9,C   4,C   1)     62.9835         0.012890   
    189. D(C  11,C   9,C   4,C   6)     63.1593         0.012890   
    190. D(C  11,C   9,C   4,C   1)   -115.0847         0.012890   
    191. D(H  36,C  10,C   6,C   4)   -107.2732         0.012076   
    192. D(H  35,C  10,C   6,C   5)   -164.7889         0.012076   
    193. D(H  35,C  10,C   6,C   4)     13.7903         0.012076   
    194. D(H  34,C  10,C   6,C   5)    -43.7786         0.012076   
    195. D(H  34,C  10,C   6,C   4)    134.8006         0.012076   
    196. D(H  37,C  11,C   9,H  33)   -178.6352         0.043903   
    197. D(H  37,C  11,C   9,C   4)     -0.6166         0.043903   
    198. D(C  12,C  11,C   9,H  33)      1.1862         0.043903   
    199. D(C  12,C  11,C   9,C   4)    179.2049         0.043903   
    200. D(C  14,C  12,C  11,H  37)      0.0828         0.013319   
    201. D(C  14,C  12,C  11,C   9)   -179.7432         0.013319   
    202. D(C  13,C  12,C  11,H  37)   -179.8738         0.013319   
    203. D(C  13,C  12,C  11,C   9)      0.3002         0.013319   
    204. D(H  38,C  13,C  12,C  14)     -0.1807         0.012474   
    205. D(H  38,C  13,C  12,C  11)    179.7733         0.012474   
    206. D(H  40,C  13,C  12,C  11)     59.1036         0.012474   
    207. D(H  39,C  13,C  12,C  14)    120.4510         0.012474   
    208. D(H  39,C  13,C  12,C  11)    -59.5951         0.012474   
    209. D(H  41,C  14,C  12,C  13)    179.9553         0.039266   
    210. D(H  41,C  14,C  12,C  11)      0.0019         0.039266   
    211. D(C  15,C  14,C  12,C  13)      0.0035         0.039266   
    212. D(C  15,C  14,C  12,C  11)   -179.9500         0.039266   
    213. D(H  42,C  15,C  14,H  41)   -179.9400         0.014786   
    214. D(H  42,C  15,C  14,C  12)      0.0132         0.014786   
    215. D(C  16,C  15,C  14,H  41)      0.1195         0.014786   
    216. D(C  16,C  15,C  14,C  12)   -179.9273         0.014786   
    217. D(H  43,C  16,C  15,H  42)   -179.8860         0.041707   
    218. D(H  43,C  16,C  15,C  14)      0.0535         0.041707   
    219. D(C  17,C  16,C  15,H  42)     -0.0732         0.041707   
    220. D(C  17,C  16,C  15,C  14)    179.8662         0.041707   
    221. D(C  19,C  17,C  16,H  43)      1.0624         0.013465   
    222. D(C  19,C  17,C  16,C  15)   -178.7548         0.013465   
    223. D(C  18,C  17,C  16,H  43)   -178.8157         0.013465   
    224. D(C  18,C  17,C  16,C  15)      1.3672         0.013465   
    225. D(H  46,C  18,C  17,C  16)     57.0962         0.012554   
    226. D(H  45,C  18,C  17,C  19)     -1.6191         0.012554   
    227. D(H  45,C  18,C  17,C  16)    178.2543         0.012554   
    228. D(H  44,C  18,C  17,C  19)    118.5486         0.012554   
    229. D(H  44,C  18,C  17,C  16)    -61.5781         0.012554   
    230. D(H  47,C  19,C  17,C  18)    179.5654         0.041072   
    231. D(H  47,C  19,C  17,C  16)     -0.3061         0.041072   
    232. D(C  20,C  19,C  17,C  18)     -1.1969         0.041072   
    233. D(C  20,C  19,C  17,C  16)    178.9315         0.041072   
    234. D(H  49,C  20,C  19,C  17)     59.9606         0.011913   
    235. D(H  48,C  20,C  19,H  47)     -3.0209         0.011913   
    236. D(H  48,C  20,C  19,C  17)    177.7277         0.011913   
    237. D(O   0,C  20,C  19,H  47)    120.1660         0.011913   
    238. D(O   0,C  20,C  19,C  17)    -59.0854         0.011913   
    239. D(H  49,C  20,O   0,H  50)    179.0605         0.019576   
    240. D(H  48,C  20,O   0,H  50)     63.1645         0.019576   
    241. D(C  19,C  20,O   0,H  50)    -59.1741         0.019576   
    -----------------------------------------------------------------

Number of atoms                         .... 51
Number of degrees of freedom            .... 241


         *************************************************************
         *                GEOMETRY OPTIMIZATION CYCLE   1            *
         *************************************************************
---------------------------------
CARTESIAN COORDINATES (ANGSTROEM)
---------------------------------
  O      8.454173    0.294812    0.774958
  C     -4.003752    0.487478    1.014268
  C     -5.420459    0.852523    0.580956
  C     -5.441288    1.652728   -0.698328
  C     -3.183943   -0.005556   -0.170634
  C     -4.856201    0.826834   -1.820706
  C     -3.566207    0.151904   -1.440390
  C     -4.096731   -0.598757    2.091656
  C     -3.298945    1.709809    1.608212
  C     -1.887642   -0.648891    0.179355
  C     -2.770789   -0.354601   -2.618461
  C     -0.700232   -0.153838   -0.154617
  C      0.618533   -0.745495    0.182978
  C      0.619271   -2.027375    0.970378
  C      1.730681   -0.114501   -0.227461
  C      3.121698   -0.531395   -0.000028
  C      4.172485    0.161859   -0.445778
  C      5.596223   -0.202195   -0.248070
  C      5.898807   -1.475359    0.492198
  C      6.550076    0.601643   -0.730290
  C      8.035166    0.366233   -0.581943
  H     -5.922482    1.395663    1.386006
  H     -5.997478   -0.061177    0.425030
  H     -4.861025    2.569641   -0.575734
  H     -6.464007    1.961776   -0.946090
  H     -4.687234    1.445606   -2.709670
  H     -5.570526    0.053295   -2.130959
  H     -4.487356   -1.532571    1.689002
  H     -3.129776   -0.810343    2.541872
  H     -4.764111   -0.284056    2.894209
  H     -3.833949    2.090962    2.477988
  H     -2.288441    1.466245    1.927425
  H     -3.226365    2.521704    0.888274
  H     -1.938685   -1.556968    0.767139
  H     -3.433869   -0.850235   -3.331859
  H     -1.995458   -1.055776   -2.327093
  H     -2.295824    0.476444   -3.148814
  H     -0.667203    0.768236   -0.724191
  H      1.625790   -2.385675    1.166073
  H      0.116728   -1.888400    1.930026
  H      0.079839   -2.809024    0.431219
  H      1.616824    0.805897   -0.791369
  H      3.285808   -1.443332    0.556446
  H      3.991018    1.076533   -1.001368
  H      5.507225   -1.427923    1.509710
  H      6.965939   -1.655493    0.550644
  H      5.422395   -2.324164   -0.002957
  H      6.251608    1.501492   -1.260786
  H      8.577871    1.164460   -1.110665
  H      8.328425   -0.585592   -1.042110
  H      8.223397    1.124916    1.204349

----------------------------
CARTESIAN COORDINATES (A.U.)
----------------------------
  NO LB      ZA    FRAG     MASS         X           Y           Z
   0 O     8.0000    0    15.999   15.976071    0.557114    1.464458
   1 C     6.0000    0    12.011   -7.565994    0.921200    1.916689
   2 C     6.0000    0    12.011  -10.243183    1.611035    1.097847
   3 C     6.0000    0    12.011  -10.282544    3.123203   -1.319648
   4 C     6.0000    0    12.011   -6.016780   -0.010499   -0.322452
   5 C     6.0000    0    12.011   -9.176891    1.562489   -3.440637
   6 C     6.0000    0    12.011   -6.739154    0.287058   -2.721943
   7 C     6.0000    0    12.011   -7.741699   -1.131486    3.952657
   8 C     6.0000    0    12.011   -6.234102    3.231072    3.039081
   9 C     6.0000    0    12.011   -3.567126   -1.226226    0.338932
  10 C     6.0000    0    12.011   -5.236033   -0.670100   -4.948174
  11 C     6.0000    0    12.011   -1.323247   -0.290712   -0.292183
  12 C     6.0000    0    12.011    1.168858   -1.408781    0.345778
  13 C     6.0000    0    12.011    1.170252   -3.831184    1.833749
  14 C     6.0000    0    12.011    3.270513   -0.216376   -0.429839
  15 C     6.0000    0    12.011    5.899155   -1.004191   -0.000053
  16 C     6.0000    0    12.011    7.884853    0.305869   -0.842398
  17 C     6.0000    0    12.011   10.575328   -0.382094   -0.468785
  18 C     6.0000    0    12.011   11.147129   -2.788025    0.930120
  19 C     6.0000    0    12.011   12.377850    1.136940   -1.380047
  20 C     6.0000    0    12.011   15.184263    0.692079   -1.099712
  21 H     1.0000    0     1.008  -11.191869    2.637421    2.619171
  22 H     1.0000    0     1.008  -11.333590   -0.115607    0.803190
  23 H     1.0000    0     1.008   -9.186007    4.855918   -1.087979
  24 H     1.0000    0     1.008  -12.215203    3.707218   -1.787850
  25 H     1.0000    0     1.008   -8.857589    2.731799   -5.120535
  26 H     1.0000    0     1.008  -10.526769    0.100713   -4.026929
  27 H     1.0000    0     1.008   -8.479874   -2.896139    3.191752
  28 H     1.0000    0     1.008   -5.914420   -1.531327    4.803441
  29 H     1.0000    0     1.008   -9.002866   -0.536787    5.469262
  30 H     1.0000    0     1.008   -7.245114    3.951346    4.682718
  31 H     1.0000    0     1.008   -4.324526    2.770801    3.642305
  32 H     1.0000    0     1.008   -6.096946    4.765330    1.678595
  33 H     1.0000    0     1.008   -3.663583   -2.942243    1.449682
  34 H     1.0000    0     1.008   -6.489073   -1.606711   -6.296302
  35 H     1.0000    0     1.008   -3.770869   -1.995128   -4.397568
  36 H     1.0000    0     1.008   -4.338478    0.900348   -5.950396
  37 H     1.0000    0     1.008   -1.260830    1.451756   -1.368524
  38 H     1.0000    0     1.008    3.072298   -4.508272    2.203559
  39 H     1.0000    0     1.008    0.220584   -3.568558    3.647220
  40 H     1.0000    0     1.008    0.150873   -5.308286    0.814886
  41 H     1.0000    0     1.008    3.055354    1.522925   -1.495471
  42 H     1.0000    0     1.008    6.209277   -2.727503    1.051531
  43 H     1.0000    0     1.008    7.541930    2.034352   -1.892311
  44 H     1.0000    0     1.008   10.407147   -2.698383    2.852938
  45 H     1.0000    0     1.008   13.163717   -3.128428    1.040567
  46 H     1.0000    0     1.008   10.246841   -4.392033   -0.005589
  47 H     1.0000    0     1.008   11.813827    2.837408   -2.382540
  48 H     1.0000    0     1.008   16.209828    2.200511   -2.098852
  49 H     1.0000    0     1.008   15.738442   -1.106609   -1.969303
  50 H     1.0000    0     1.008   15.539968    2.125783    2.275890

--------------------------------
INTERNAL COORDINATES (ANGSTROEM)
--------------------------------
 O      0   0   0     0.000000000000     0.00000000     0.00000000
 C      1   0   0    12.461712241226     0.00000000     0.00000000
 C      2   1   0     1.525803502510   157.88986464     0.00000000
 C      3   2   1     1.509081772079   112.35993145     5.06172572
 C      2   1   3     1.522879706797    56.07470710    59.02464020
 C      4   3   2     1.511344257022   109.53842685    62.19749542
 C      5   2   1     1.335365306692   123.19985424   214.04122192
 C      2   1   5     1.532747632435    93.62264451   112.34758996
 C      2   1   5     1.530887397264    63.86699918   221.45112943
 C      5   2   1     1.488881753281   115.19428121    32.25341643
 C      7   5   2     1.509002092514   123.49513326   181.07972483
 C     10   5   2     1.329118930387   123.90513825   244.91530939
 C     12  10   5     1.484307368629   126.02408993   179.20487590
 C     13  12  10     1.504399237081   117.33085233     0.30022742
 C     13  12  10     1.342939731791   118.61882308   180.25680602
 C     15  13  12     1.469848531385   127.09742622   180.05003724
 C     16  15  13     1.335457376867   123.07616683   180.07268289
 C     17  16  15     1.482785762599   125.70027856   179.86621931
 C     18  17  16     1.503496084479   117.82653015     1.36721473
 C     18  17  16     1.337358271148   119.28691246   181.24524335
 C      1   2   3     1.421916292237    73.91644473   326.03885909
 H      3   2   1     1.093221746011   109.64029344   241.43510762
 H      3   2   1     1.091838389308   109.33192070   125.44064989
 H      4   3   2     1.092000054452   110.04361075   301.56310950
 H      4   3   2     1.096745576500   110.71972659   184.07786738
 H      6   4   3     1.096214042920   110.69825047   190.64035057
 H      6   4   3     1.097669704818   110.06408615    74.28077873
 H      8   2   1     1.089369846570   111.68044740   250.15858487
 H      8   2   1     1.087411600632   112.02285082    11.15408313
 H      8   2   1     1.090194844929   110.48825281   130.60595936
 H      9   2   1     1.089961659448   111.27396138   216.64542569
 H      9   2   1     1.087354038596   111.27835266   336.47243792
 H      9   2   1     1.087543519637   111.71341676    96.54464047
 H     10   5   2     1.082912004519   116.67211770    62.98347521
 H     11   7   5     1.092824506904   110.00120622   134.80063707
 H     11   7   5     1.085209575890   112.57323545    13.79028076
 H     11   7   5     1.094304589238   110.62452541   252.72684905
 H     12  10   5     1.084309724450   118.42072387   359.38342100
 H     14  13  12     1.086165577872   112.07615161   179.77328662
 H     14  13  12     1.092147746532   110.56355575   300.40494870
 H     14  13  12     1.092087318791   110.56254447    59.10356302
 H     15  13  12     1.085397864338   118.05682050     0.00000000
 H     16  15  13     1.080844716691   117.55903055     0.00000000
 H     17  16  15     1.085466930096   118.47234761     0.05346729
 H     19  18  17     1.091291148297   110.49059328   298.42189996
 H     19  18  17     1.083806035648   111.43537133   178.25426080
 H     19  18  17     1.092070277926   110.31200848    57.09615323
 H     20  18  17     1.086387644670   118.55362997   359.69389453
 H     21   1   2     1.100565171418   110.46062166   130.76505924
 H     21   1   2     1.097144122073   106.13518962   246.66099078
 H      1   2   3     0.962656139562    74.83777688    80.50953155

---------------------------
INTERNAL COORDINATES (A.U.)
---------------------------
 O      0   0   0     0.000000000000     0.00000000     0.00000000
 C      1   0   0    23.549223295651     0.00000000     0.00000000
 C      2   1   0     2.883350753923   157.88986464     0.00000000
 C      3   2   1     2.851751262922   112.35993145     5.06172572
 C      2   1   3     2.877825580752    56.07470710    59.02464020
 C      4   3   2     2.856026739846   109.53842685    62.19749542
 C      5   2   1     2.523474718388   123.19985424   214.04122192
 C      2   1   5     2.896473257718    93.62264451   112.34758996
 C      2   1   5     2.892957922701    63.86699918   221.45112943
 C      5   2   1     2.813578759494   115.19428121    32.25341643
 C      7   5   2     2.851600690366   123.49513326   181.07972483
 C     10   5   2     2.511670777843   123.90513825   244.91530939
 C     12  10   5     2.804934425270   126.02408993   179.20487590
 C     13  12  10     2.842902554163   117.33085233     0.30022742
 C     13  12  10     2.537788307446   118.61882308   180.25680602
 C     15  13  12     2.777611182664   127.09742622   180.05003724
 C     16  15  13     2.523648705804   123.07616683   180.07268289
 C     17  16  15     2.802059006590   125.70027856   179.86621931
 C     18  17  16     2.841195843088   117.82653015     1.36721473
 C     18  17  16     2.527240875405   119.28691246   181.24524335
 C      1   2   3     2.687032377689    73.91644473   326.03885909
 H      3   2   1     2.065889703608   109.64029344   241.43510762
 H      3   2   1     2.063275538293   109.33192070   125.44064989
 H      4   3   2     2.063581041142   110.04361075   301.56310950
 H      4   3   2     2.072548778175   110.71972659   184.07786738
 H      6   4   3     2.071544325278   110.69825047   190.64035057
 H      6   4   3     2.074295127609   110.06408615    74.28077873
 H      8   2   1     2.058610668570   111.68044740   250.15858487
 H      8   2   1     2.054910120042   112.02285082    11.15408313
 H      8   2   1     2.060169689528   110.48825281   130.60595936
 H      9   2   1     2.059729032831   111.27396138   216.64542569
 H      9   2   1     2.054801343560   111.27835266   336.47243792
 H      9   2   1     2.055159410836   111.71341676    96.54464047
 H     10   5   2     2.046407115676   116.67211770    62.98347521
 H     11   7   5     2.065139030486   110.00120622   134.80063707
 H     11   7   5     2.050748896340   112.57323545    13.79028076
 H     11   7   5     2.067935980753   110.62452541   252.72684905
 H     12  10   5     2.049048423558   118.42072387   359.38342100
 H     14  13  12     2.052555478271   112.07615161   179.77328662
 H     14  13  12     2.063860138725   110.56355575   300.40494870
 H     14  13  12     2.063745946842   110.56254447    59.10356302
 H     15  13  12     2.051104709942   118.05682050     0.00000000
 H     16  15  13     2.042500507841   117.55903055     0.00000000
 H     17  16  15     2.051235225310   118.47234761     0.05346729
 H     19  18  17     2.062241402653   110.49059328   298.42189996
 H     19  18  17     2.048096589666   111.43537133   178.25426080
 H     19  18  17     2.063713744275   110.31200848    57.09615323
 H     20  18  17     2.052975123703   118.55362997   359.69389453
 H     21   1   2     2.079766766511   110.46062166   130.76505924
 H     21   1   2     2.073301920160   106.13518962   246.66099078
 H      1   2   3     1.819156464911    74.83777688    80.50953155

---------------------
BASIS SET INFORMATION
---------------------
There are 3 groups of distinct atoms

 Group   1 Type O   : 11s6p2d contracted to 5s3p2d pattern {62111/411/11}
 Group   2 Type C   : 11s6p1d contracted to 5s3p1d pattern {62111/411/1}
 Group   3 Type H   : 5s contracted to 3s pattern {311}

Atom   0O    basis set group =>   1
Atom   1C    basis set group =>   2
Atom   2C    basis set group =>   2
Atom   3C    basis set group =>   2
Atom   4C    basis set group =>   2
Atom   5C    basis set group =>   2
Atom   6C    basis set group =>   2
Atom   7C    basis set group =>   2
Atom   8C    basis set group =>   2
Atom   9C    basis set group =>   2
Atom  10C    basis set group =>   2
Atom  11C    basis set group =>   2
Atom  12C    basis set group =>   2
Atom  13C    basis set group =>   2
Atom  14C    basis set group =>   2
Atom  15C    basis set group =>   2
Atom  16C    basis set group =>   2
Atom  17C    basis set group =>   2
Atom  18C    basis set group =>   2
Atom  19C    basis set group =>   2
Atom  20C    basis set group =>   2
Atom  21H    basis set group =>   3
Atom  22H    basis set group =>   3
Atom  23H    basis set group =>   3
Atom  24H    basis set group =>   3
Atom  25H    basis set group =>   3
Atom  26H    basis set group =>   3
Atom  27H    basis set group =>   3
Atom  28H    basis set group =>   3
Atom  29H    basis set group =>   3
Atom  30H    basis set group =>   3
Atom  31H    basis set group =>   3
Atom  32H    basis set group =>   3
Atom  33H    basis set group =>   3
Atom  34H    basis set group =>   3
Atom  35H    basis set group =>   3
Atom  36H    basis set group =>   3
Atom  37H    basis set group =>   3
Atom  38H    basis set group =>   3
Atom  39H    basis set group =>   3
Atom  40H    basis set group =>   3
Atom  41H    basis set group =>   3
Atom  42H    basis set group =>   3
Atom  43H    basis set group =>   3
Atom  44H    basis set group =>   3
Atom  45H    basis set group =>   3
Atom  46H    basis set group =>   3
Atom  47H    basis set group =>   3
Atom  48H    basis set group =>   3
Atom  49H    basis set group =>   3
Atom  50H    basis set group =>   3
---------------------------------
AUXILIARY/J BASIS SET INFORMATION
---------------------------------
There are 3 groups of distinct atoms

 Group   1 Type O   : 8s3p3d contracted to 6s3p3d pattern {311111/111/111}
 Group   2 Type C   : 8s3p3d contracted to 6s3p3d pattern {311111/111/111}
 Group   3 Type H   : 5s2p contracted to 3s1p pattern {311/2}

Atom   0O    basis set group =>   1
Atom   1C    basis set group =>   2
Atom   2C    basis set group =>   2
Atom   3C    basis set group =>   2
Atom   4C    basis set group =>   2
Atom   5C    basis set group =>   2
Atom   6C    basis set group =>   2
Atom   7C    basis set group =>   2
Atom   8C    basis set group =>   2
Atom   9C    basis set group =>   2
Atom  10C    basis set group =>   2
Atom  11C    basis set group =>   2
Atom  12C    basis set group =>   2
Atom  13C    basis set group =>   2
Atom  14C    basis set group =>   2
Atom  15C    basis set group =>   2
Atom  16C    basis set group =>   2
Atom  17C    basis set group =>   2
Atom  18C    basis set group =>   2
Atom  19C    basis set group =>   2
Atom  20C    basis set group =>   2
Atom  21H    basis set group =>   3
Atom  22H    basis set group =>   3
Atom  23H    basis set group =>   3
Atom  24H    basis set group =>   3
Atom  25H    basis set group =>   3
Atom  26H    basis set group =>   3
Atom  27H    basis set group =>   3
Atom  28H    basis set group =>   3
Atom  29H    basis set group =>   3
Atom  30H    basis set group =>   3
Atom  31H    basis set group =>   3
Atom  32H    basis set group =>   3
Atom  33H    basis set group =>   3
Atom  34H    basis set group =>   3
Atom  35H    basis set group =>   3
Atom  36H    basis set group =>   3
Atom  37H    basis set group =>   3
Atom  38H    basis set group =>   3
Atom  39H    basis set group =>   3
Atom  40H    basis set group =>   3
Atom  41H    basis set group =>   3
Atom  42H    basis set group =>   3
Atom  43H    basis set group =>   3
Atom  44H    basis set group =>   3
Atom  45H    basis set group =>   3
Atom  46H    basis set group =>   3
Atom  47H    basis set group =>   3
Atom  48H    basis set group =>   3
Atom  49H    basis set group =>   3
Atom  50H    basis set group =>   3


           ************************************************************
           *        Program running with 16 parallel MPI-processes    *
           *              working on a common directory               *
           ************************************************************
------------------------------------------------------------------------------
                             ORCA STARTUP CALCULATIONS
                           -- RI-GTO INTEGRALS CHOSEN --
------------------------------------------------------------------------------
------------------------------------------------------------------------------
                   ___                                                        
                  /   \      - P O W E R E D   B Y -                         
                 /     \                                                     
                 |  |  |   _    _      __       _____    __    __             
                 |  |  |  | |  | |    /  \     |  _  \  |  |  /  |          
                  \  \/   | |  | |   /    \    | | | |  |  | /  /          
                 / \  \   | |__| |  /  /\  \   | |_| |  |  |/  /          
                |  |  |   |  __  | /  /__\  \  |    /   |      \           
                |  |  |   | |  | | |   __   |  |    \   |  |\   \          
                \     /   | |  | | |  |  |  |  | |\  \  |  | \   \       
                 \___/    |_|  |_| |__|  |__|  |_| \__\ |__|  \__/        
                                                                              
                      - O R C A' S   B I G   F R I E N D -                    
                                      &                                       
                       - I N T E G R A L  F E E D E R -                       
                                                                              
 v1 FN, 2020, v2 2021, v3 2022-2024                                           
------------------------------------------------------------------------------


----------------------
SHARK INTEGRAL PACKAGE
----------------------

Number of atoms                             ...     51
Number of basis functions                   ...    494
Number of shells                            ...    280
Maximum angular momentum                    ...      2
Integral batch strategy                     ... SHARK/LIBINT Hybrid
RI-J (if used) integral strategy            ... SPLIT-RIJ (Revised 2003 algorithm where possible)
Printlevel                                  ...      1
Contraction scheme used                     ... SEGMENTED contraction
Prescreening option                         ... SCHWARTZ
   Thresh                                   ... 2.500e-11
   Tcut                                     ... 2.500e-12
   Tpresel                                  ... 2.500e-12 
Coulomb Range Separation                    ... NOT USED
Exchange Range Separation                   ... NOT USED
Multipole approximations                    ... NOT USED
Finite Nucleus Model                        ... NOT USED
CABS basis                                  ... NOT available
Auxiliary Coulomb fitting basis             ... AVAILABLE
   # of basis functions in Aux-J            ...    810
   # of shells in Aux-J                     ...    372
   Maximum angular momentum in Aux-J        ...      2
Auxiliary J/K fitting basis                 ... NOT available
Auxiliary Correlation fitting basis         ... NOT available
Auxiliary 'external' fitting basis          ... NOT available

Checking pre-screening integrals            ... done (  0.0 sec) Dimension = 280
Check shell pair data                       ... done (  0.0 sec)
Shell pair information
Shell pair cut-off parameter TPreSel        ...   2.5e-12
Total number of shell pairs                 ...     39340
Shell pairs after pre-screening             ...     24330
Total number of primitive shell pairs       ...    140737
Primitive shell pairs kept                  ...     55842
          la=0 lb=0:  11274 shell pairs
          la=1 lb=0:   8262 shell pairs
          la=1 lb=1:   1494 shell pairs
          la=2 lb=0:   2305 shell pairs
          la=2 lb=1:    870 shell pairs
          la=2 lb=2:    125 shell pairs

Calculating one electron integrals          ... done (  0.0 sec)
Calculating RI/J V-Matrix + Cholesky decomp.... done (  0.0 sec)
Calculating Nuclear repulsion               ... done (  0.0 sec) ENN=   1566.813770683645 Eh

Diagonalization of the overlap matrix:
Smallest eigenvalue                        ... 2.193e-05
Time for diagonalization                   ...    0.022 sec
Threshold for overlap eigenvalues          ... 1.000e-07
Number of eigenvalues below threshold      ... 0
Time for construction of square roots      ...    0.012 sec
Total time needed                          ...    0.037 sec

-------------------
DFT GRID GENERATION
-------------------

General Integration Accuracy     IntAcc      ... 4.959
Radial Grid Type                 RadialGrid  ... OptM3 with GC (2021)
Angular Grid (max. ang.)         AngularGrid ... 6 (Lebedev-590)
Angular grid pruning method      GridPruning ... 4 (adaptive)
Weight generation scheme         WeightScheme... mBecke (2022)
Basis function cutoff            BFCut       ... 1.0000e-11
Integration weight cutoff        WCut        ... 1.0000e-14
Partially contracted basis set               ... off
Rotationally invariant grid construction     ... off
Angular grids for H and He will be reduced by one unit
Diffuse basis detected: some atoms will have their outermost
                        angular grid increased by 1.

Total number of grid points                  ...   552688
Total number of batches                      ...     8662
Average number of points per batch           ...       63
Average number of grid points per atom       ...    10837
Initializing property integral containers    ... done (  0.0 sec)

SHARK setup successfully completed in   3.9 seconds

Maximum memory used throughout the entire STARTUP-calculation: 123.2 MB


           ************************************************************
           *        Program running with 16 parallel MPI-processes    *
           *              working on a common directory               *
           ************************************************************
-------------------------------------------------------------------------------
                                 ORCA GUESS
                   Start orbitals & Density for SCF / CASSCF
-------------------------------------------------------------------------------

------------
SCF SETTINGS
------------
Hamiltonian:
 Density Functional     Method          .... DFT(GTOs)
 Exchange Functional    Exchange        .... B973C
 Correlation Functional Correlation     .... B973C
 Gradients option       PostSCFGGA      .... off
 RI-approximation to the Coulomb term is turned on
   Number of AuxJ basis functions       .... 810


General Settings:
 Integral files         IntName         .... m1_00_Vitamin_A-QM3_001-B97-3C-TZ
 Hartree-Fock type      HFTyp           .... RHF
 Total Charge           Charge          ....    0
 Multiplicity           Mult            ....    1
 Number of Electrons    NEL             ....  158
 Basis Dimension        Dim             ....  494
 Nuclear Repulsion      ENuc            ....   1566.8137706836 Eh

Convergence Acceleration:
 AO-DIIS                CNVDIIS         .... on
   Start iteration      DIISMaxIt       ....    12
   Startup error        DIISStart       ....  0.200000
   # of expansion vecs  DIISMaxEq       ....     5
   Bias factor          DIISBfac        ....   1.050
   Max. coefficient     DIISMaxC        ....  10.000
 MO-DIIS                CNVKDIIS        .... off
 Trust-Rad. Augm. Hess. CNVTRAH         .... off
 SOSCF                  CNVSOSCF        .... on
   Start iteration      SOSCFMaxIt      ....   150
   Startup grad/error   SOSCFStart      ....  0.003300
   Hessian update       SOSCFHessUp     .... L-BFGS
 Level Shifting         CNVShift        .... on
   Level shift para.    LevelShift      ....    0.2500
   Turn off err/grad.   ShiftErr        ....    0.0010
 Zerner damping         CNVZerner       .... off
 Static damping         CNVDamp         .... on
   Fraction old density DampFac         ....    0.7000
   Max. Damping (<1)    DampMax         ....    0.9800
   Min. Damping (>=0)   DampMin         ....    0.0000
   Turn off err/grad.   DampErr         ....    0.1000

SCF Procedure:
 Maximum # iterations   MaxIter         ....   800
 SCF integral mode      SCFMode         .... Direct
   Integral package                     .... SHARK and LIBINT hybrid scheme
 Reset frequency        DirectResetFreq ....    20
 Integral Threshold     Thresh          ....  2.500e-11 Eh
 Primitive CutOff       TCut            ....  2.500e-12 Eh

Convergence Tolerance:
 Convergence Check Mode ConvCheckMode   .... Total+1el-Energy
 Convergence forced     ConvForced      .... 0
 Energy Change          TolE            ....  1.000e-08 Eh
 1-El. energy change                    ....  1.000e-05 Eh
 Orbital Gradient       TolG            ....  1.000e-05
 Orbital Rotation angle TolX            ....  1.000e-05
 DIIS Error             TolErr          ....  5.000e-07

--------------------------------
INITIAL GUESS: MINIMAL BASIS EHT
--------------------------------
The minimal basis has 135 functions
EHT matrix was diagonalized
Basis set overlap was calculated now projecting the orbitals
Using GuessMode=FMatrix for the initial guess
C*T matrix was formed
Effective Fockian was calculated
Effective Fockian was diagonalized
Initial density was built
                      ------------------
                      INITIAL GUESS DONE
                      ------------------
             **** ENERGY FILE WAS UPDATED (m1_00_Vitamin_A-QM3_001-B97-3C-TZ.en.tmp) ****
Finished Guess after   0.2 sec
Maximum memory used throughout the entire GUESS-calculation: 41.6 MB


           ************************************************************
           *        Program running with 16 parallel MPI-processes    *
           *              working on a common directory               *
           ************************************************************

-------------------------------------------------------------------------------------------
                                      ORCA LEAN-SCF
                              memory conserving SCF solver
-------------------------------------------------------------------------------------------

----------------------------------------D-I-I-S--------------------------------------------
Iteration    Energy (Eh)           Delta-E    RMSDP     MaxDP     DIISErr   Damp  Time(sec)
-------------------------------------------------------------------------------------------
               ***  Starting incremental Fock matrix formation  ***
    1    -852.6724271502084775     0.00e+00  3.77e-03  1.31e-01  4.63e-01  0.700   0.8
Warning: op=0 Small HOMO/LUMO gap (   0.082) - skipping pre-diagonalization
         Will do a full diagonalization
    2    -853.2937096932787426    -6.21e-01  3.26e-03  1.43e-01  3.26e-01  0.700   0.8
    3    -853.7115333690317129    -4.18e-01  2.19e-03  6.51e-02  2.28e-01  0.700   0.7
                               ***Turning on AO-DIIS***
    4    -854.0020632575947275    -2.91e-01  1.63e-03  5.39e-02  1.59e-01  0.700   0.7
    5    -854.2019207156795346    -2.00e-01  1.15e-03  3.48e-02  1.11e-01  0.700   0.7
    6    -854.3457263292002608    -1.44e-01  8.13e-04  2.36e-02  7.76e-02  0.700   0.7
    7    -854.4473802603542936    -1.02e-01  1.92e-03  5.44e-02  5.43e-02  0.000   0.7
    8    -854.6827644253976359    -2.35e-01  2.72e-04  2.74e-02  2.21e-02  0.000   0.7
    9    -854.6832149355527690    -4.51e-04  4.86e-05  3.82e-03  1.48e-02  0.000   0.7
                              *** Initializing SOSCF ***
---------------------------------------S-O-S-C-F--------------------------------------
Iteration    Energy (Eh)           Delta-E    RMSDP     MaxDP     MaxGrad    Time(sec)
--------------------------------------------------------------------------------------
   10    -854.6834588553920184    -2.44e-04  2.94e-05  2.26e-03  2.71e-03     0.8
               *** Restarting incremental Fock matrix formation ***
   11    -854.6834738073353037    -1.50e-05  4.11e-05  5.30e-03  1.20e-04     0.8
   12    -854.6834703772033208     3.43e-06  2.16e-05  2.68e-03  3.04e-04     0.6
   13    -854.6834749886502323    -4.61e-06  7.54e-06  5.17e-04  2.20e-05     0.6
   14    -854.6834748777991990     1.11e-07  3.07e-06  1.97e-04  6.08e-05     0.6
   15    -854.6834749876647948    -1.10e-07  2.79e-06  2.82e-04  2.57e-06     0.6
   16    -854.6834749984423070    -1.08e-08  1.73e-06  1.45e-04  4.09e-06     0.6
   17    -854.6834750073294344    -8.89e-09  5.66e-06  5.61e-04  1.01e-06     0.6
                 **** Energy Check signals convergence ****

               *****************************************************
               *                     SUCCESS                       *
               *           SCF CONVERGED AFTER  17 CYCLES          *
               *****************************************************

             **** ENERGY FILE WAS UPDATED (m1_00_Vitamin_A-QM3_001-B97-3C-TZ.en.tmp) ****

----------------
TOTAL SCF ENERGY
----------------

Total Energy       :       -854.68347500732943 Eh          -23257.11972 eV

Components:
Nuclear Repulsion  :       1566.81377068364509 Eh           42635.17023 eV
Electronic Energy  :      -2421.49724569097452 Eh          -65892.28995 eV
One Electron Energy:      -4268.06582827117018 Eh         -116139.97563 eV
Two Electron Energy:       1846.56858258019588 Eh           50247.68567 eV

Virial components:
Potential Energy   :      -1706.08639273135259 Eh          -46424.97095 eV
Kinetic Energy     :        851.40291772402304 Eh           23167.85122 eV
Virial Ratio       :          2.00385311961589

DFT components:
N(Alpha)           :       78.999980136529 electrons
N(Beta)            :       78.999980136529 electrons
N(Total)           :      157.999960273058 electrons
E(XC)              :     -127.699940273451 Eh       

---------------
SCF CONVERGENCE
---------------

  Last Energy change         ...    8.8871e-09  Tolerance :   1.0000e-08
  Last MAX-Density change    ...    5.6134e-04  Tolerance :   1.0000e-07
  Last RMS-Density change    ...    5.6613e-06  Tolerance :   5.0000e-09
  Last DIIS Error            ...    2.7088e-03  Tolerance :   5.0000e-07
  Last Orbital Gradient      ...    1.0068e-06  Tolerance :   1.0000e-05
  Last Orbital Rotation      ...    2.8473e-06  Tolerance :   1.0000e-05


----------------
ORBITAL ENERGIES
----------------

  NO   OCC          E(Eh)            E(eV) 
   0   2.0000     -18.741778      -509.9897 
   1   2.0000      -9.939313      -270.4625 
   2   2.0000      -9.904594      -269.5177 
   3   2.0000      -9.903387      -269.4849 
   4   2.0000      -9.899415      -269.3768 
   5   2.0000      -9.893750      -269.2226 
   6   2.0000      -9.892755      -269.1955 
   7   2.0000      -9.892067      -269.1768 
   8   2.0000      -9.887914      -269.0638 
   9   2.0000      -9.887899      -269.0634 
  10   2.0000      -9.887507      -269.0527 
  11   2.0000      -9.886507      -269.0255 
  12   2.0000      -9.885662      -269.0025 
  13   2.0000      -9.884294      -268.9653 
  14   2.0000      -9.883644      -268.9476 
  15   2.0000      -9.881491      -268.8890 
  16   2.0000      -9.879515      -268.8353 
  17   2.0000      -9.877452      -268.7791 
  18   2.0000      -9.875635      -268.7297 
  19   2.0000      -9.874262      -268.6923 
  20   2.0000      -9.870313      -268.5849 
  21   2.0000      -0.940001       -25.5787 
  22   2.0000      -0.783255       -21.3135 
  23   2.0000      -0.762187       -20.7402 
  24   2.0000      -0.747692       -20.3457 
  25   2.0000      -0.718742       -19.5580 
  26   2.0000      -0.713309       -19.4101 
  27   2.0000      -0.692452       -18.8426 
  28   2.0000      -0.663214       -18.0470 
  29   2.0000      -0.649658       -17.6781 
  30   2.0000      -0.628124       -17.0921 
  31   2.0000      -0.620052       -16.8725 
  32   2.0000      -0.616210       -16.7679 
  33   2.0000      -0.611292       -16.6341 
  34   2.0000      -0.599769       -16.3205 
  35   2.0000      -0.556629       -15.1466 
  36   2.0000      -0.531750       -14.4696 
  37   2.0000      -0.511521       -13.9192 
  38   2.0000      -0.499354       -13.5881 
  39   2.0000      -0.485010       -13.1978 
  40   2.0000      -0.476884       -12.9767 
  41   2.0000      -0.455035       -12.3821 
  42   2.0000      -0.440323       -11.9818 
  43   2.0000      -0.435030       -11.8378 
  44   2.0000      -0.423814       -11.5326 
  45   2.0000      -0.414705       -11.2847 
  46   2.0000      -0.406146       -11.0518 
  47   2.0000      -0.400846       -10.9076 
  48   2.0000      -0.393157       -10.6983 
  49   2.0000      -0.388781       -10.5793 
  50   2.0000      -0.378935       -10.3113 
  51   2.0000      -0.376759       -10.2521 
  52   2.0000      -0.376026       -10.2322 
  53   2.0000      -0.371487       -10.1087 
  54   2.0000      -0.367782       -10.0079 
  55   2.0000      -0.356424        -9.6988 
  56   2.0000      -0.352185        -9.5834 
  57   2.0000      -0.350363        -9.5339 
  58   2.0000      -0.347370        -9.4524 
  59   2.0000      -0.343116        -9.3367 
  60   2.0000      -0.334390        -9.0992 
  61   2.0000      -0.331277        -9.0145 
  62   2.0000      -0.324931        -8.8418 
  63   2.0000      -0.323686        -8.8079 
  64   2.0000      -0.313380        -8.5275 
  65   2.0000      -0.308666        -8.3992 
  66   2.0000      -0.306339        -8.3359 
  67   2.0000      -0.302315        -8.2264 
  68   2.0000      -0.295333        -8.0364 
  69   2.0000      -0.291956        -7.9445 
  70   2.0000      -0.282596        -7.6898 
  71   2.0000      -0.278066        -7.5666 
  72   2.0000      -0.273796        -7.4504 
  73   2.0000      -0.260266        -7.0822 
  74   2.0000      -0.253453        -6.8968 
  75   2.0000      -0.235117        -6.3979 
  76   2.0000      -0.221793        -6.0353 
  77   2.0000      -0.200214        -5.4481 
  78   2.0000      -0.174068        -4.7366 
  79   0.0000      -0.077728        -2.1151 
  80   0.0000      -0.025022        -0.6809 
  81   0.0000       0.001902         0.0518 
  82   0.0000       0.020646         0.5618 
  83   0.0000       0.022359         0.6084 
  84   0.0000       0.030457         0.8288 
  85   0.0000       0.036297         0.9877 
  86   0.0000       0.043008         1.1703 
  87   0.0000       0.044425         1.2089 
  88   0.0000       0.049106         1.3362 
  89   0.0000       0.055364         1.5065 
*Only the first 10 virtual orbitals were printed.

                    ********************************
                    * MULLIKEN POPULATION ANALYSIS *
                    ********************************

-----------------------
MULLIKEN ATOMIC CHARGES
-----------------------
   0 O :   -0.560306
   1 C :    0.154178
   2 C :   -0.317728
   3 C :   -0.348165
   4 C :    0.172693
   5 C :   -0.313012
   6 C :    0.014908
   7 C :   -0.564379
   8 C :   -0.574812
   9 C :   -0.402098
  10 C :   -0.561059
  11 C :   -0.305353
  12 C :    0.263100
  13 C :   -0.568358
  14 C :   -0.210797
  15 C :   -0.115810
  16 C :   -0.289848
  17 C :    0.210511
  18 C :   -0.577938
  19 C :   -0.231737
  20 C :   -0.266198
  21 H :    0.174917
  22 H :    0.168970
  23 H :    0.163214
  24 H :    0.170620
  25 H :    0.172773
  26 H :    0.164376
  27 H :    0.175492
  28 H :    0.181175
  29 H :    0.174167
  30 H :    0.168687
  31 H :    0.186021
  32 H :    0.168204
  33 H :    0.192114
  34 H :    0.162771
  35 H :    0.204172
  36 H :    0.165669
  37 H :    0.152777
  38 H :    0.172754
  39 H :    0.178406
  40 H :    0.181405
  41 H :    0.136854
  42 H :    0.159145
  43 H :    0.135248
  44 H :    0.174390
  45 H :    0.214495
  46 H :    0.173024
  47 H :    0.167369
  48 H :    0.153532
  49 H :    0.182661
  50 H :    0.416804
Sum of atomic charges:    0.0000000

--------------------------------
MULLIKEN REDUCED ORBITAL CHARGES
--------------------------------
  0 O s       :     3.816131  s :     3.816131
      pz      :     1.292494  p :     4.710087
      px      :     1.860598
      py      :     1.556995
      dz2     :     0.004077  d :     0.034088
      dxz     :     0.003891
      dyz     :     0.007050
      dx2y2   :     0.010826
      dxy     :     0.008243

  1 C s       :     2.842812  s :     2.842812
      pz      :     0.982160  p :     2.945357
      px      :     0.999581
      py      :     0.963616
      dz2     :     0.008846  d :     0.057653
      dxz     :     0.012260
      dyz     :     0.014339
      dx2y2   :     0.011615
      dxy     :     0.010594

  2 C s       :     3.165400  s :     3.165400
      pz      :     1.050017  p :     3.106457
      px      :     0.981600
      py      :     1.074840
      dz2     :     0.009113  d :     0.045871
      dxz     :     0.009121
      dyz     :     0.009845
      dx2y2   :     0.006518
      dxy     :     0.011274

  3 C s       :     3.204252  s :     3.204252
      pz      :     0.943858  p :     3.098398
      px      :     1.144160
      py      :     1.010381
      dz2     :     0.011536  d :     0.045515
      dxz     :     0.006438
      dyz     :     0.010155
      dx2y2   :     0.007326
      dxy     :     0.010060

  4 C s       :     3.142960  s :     3.142960
      pz      :     0.885316  p :     2.636161
      px      :     0.857856
      py      :     0.892989
      dz2     :     0.012873  d :     0.048186
      dxz     :     0.014438
      dyz     :     0.009971
      dx2y2   :     0.005175
      dxy     :     0.005729

  5 C s       :     3.134020  s :     3.134020
      pz      :     1.066932  p :     3.132619
      px      :     0.995401
      py      :     1.070286
      dz2     :     0.008561  d :     0.046373
      dxz     :     0.007004
      dyz     :     0.012003
      dx2y2   :     0.006036
      dxy     :     0.012770

  6 C s       :     3.174254  s :     3.174254
      pz      :     0.844462  p :     2.763149
      px      :     0.963139
      py      :     0.955549
      dz2     :     0.012653  d :     0.047688
      dxz     :     0.013910
      dyz     :     0.010724
      dx2y2   :     0.004544
      dxy     :     0.005858

  7 C s       :     3.276127  s :     3.276127
      pz      :     1.063495  p :     3.250206
      px      :     1.142126
      py      :     1.044585
      dz2     :     0.004828  d :     0.038046
      dxz     :     0.010745
      dyz     :     0.008636
      dx2y2   :     0.008353
      dxy     :     0.005484

  8 C s       :     3.269703  s :     3.269703
      pz      :     1.115416  p :     3.267187
      px      :     1.118074
      py      :     1.033697
      dz2     :     0.004527  d :     0.037923
      dxz     :     0.006986
      dyz     :     0.011785
      dx2y2   :     0.009345
      dxy     :     0.005280

  9 C s       :     3.313105  s :     3.313105
      pz      :     1.029241  p :     3.047309
      px      :     1.035836
      py      :     0.982231
      dz2     :     0.003225  d :     0.041684
      dxz     :     0.008164
      dyz     :     0.006537
      dx2y2   :     0.013067
      dxy     :     0.010691

 10 C s       :     3.289027  s :     3.289027
      pz      :     1.041097  p :     3.233974
      px      :     1.081215
      py      :     1.111663
      dz2     :     0.004879  d :     0.038058
      dxz     :     0.010521
      dyz     :     0.009596
      dx2y2   :     0.002110
      dxy     :     0.010952

 11 C s       :     3.288442  s :     3.288442
      pz      :     0.956763  p :     2.974990
      px      :     1.053884
      py      :     0.964343
      dz2     :     0.003195  d :     0.041921
      dxz     :     0.008886
      dyz     :     0.006061
      dx2y2   :     0.013154
      dxy     :     0.010625

 12 C s       :     3.174131  s :     3.174131
      pz      :     0.855530  p :     2.514619
      px      :     0.947694
      py      :     0.711395
      dz2     :     0.005578  d :     0.048151
      dxz     :     0.009707
      dyz     :     0.006117
      dx2y2   :     0.012915
      dxy     :     0.013834

 13 C s       :     3.267676  s :     3.267676
      pz      :     1.076671  p :     3.262927
      px      :     1.176114
      py      :     1.010142
      dz2     :     0.007210  d :     0.037755
      dxz     :     0.006722
      dyz     :     0.008559
      dx2y2   :     0.007762
      dxy     :     0.007502

 14 C s       :     3.265201  s :     3.265201
      pz      :     0.967778  p :     2.904297
      px      :     1.053538
      py      :     0.882981
      dz2     :     0.003292  d :     0.041299
      dxz     :     0.008504
      dyz     :     0.005985
      dx2y2   :     0.013416
      dxy     :     0.010102

 15 C s       :     3.092203  s :     3.092203
      pz      :     0.974007  p :     2.982354
      px      :     1.062380
      py      :     0.945967
      dz2     :     0.003357  d :     0.041253
      dxz     :     0.008494
      dyz     :     0.006155
      dx2y2   :     0.012894
      dxy     :     0.010353

 16 C s       :     3.293736  s :     3.293736
      pz      :     0.977514  p :     2.954943
      px      :     1.030820
      py      :     0.946609
      dz2     :     0.003444  d :     0.041169
      dxz     :     0.008279
      dyz     :     0.006050
      dx2y2   :     0.013236
      dxy     :     0.010161

 17 C s       :     3.194589  s :     3.194589
      pz      :     0.875211  p :     2.545846
      px      :     0.894503
      py      :     0.776132
      dz2     :     0.006138  d :     0.049054
      dxz     :     0.008829
      dyz     :     0.006503
      dx2y2   :     0.014398
      dxy     :     0.013186

 18 C s       :     3.275428  s :     3.275428
      pz      :     1.067853  p :     3.264871
      px      :     1.204877
      py      :     0.992141
      dz2     :     0.009028  d :     0.037639
      dxz     :     0.004598
      dyz     :     0.007809
      dx2y2   :     0.009998
      dxy     :     0.006206

 19 C s       :     3.161414  s :     3.161414
      pz      :     1.042447  p :     3.031903
      px      :     0.978758
      py      :     1.010698
      dz2     :     0.003272  d :     0.038420
[...]
114:   1504.38   0.001832    9.26  0.000380  (-0.010991  0.015774 -0.003233)
115:   1514.25   0.000905    4.57  0.000187  ( 0.008196  0.003333  0.010404)
116:   1520.95   0.001370    6.92  0.000281  (-0.012865 -0.001750  0.010609)
117:   1525.45   0.000199    1.00  0.000041  (-0.001323  0.004939 -0.003807)
118:   1595.43   0.004990   25.22  0.000976  ( 0.026560  0.011379 -0.011881)
119:   1605.23   0.006778   34.25  0.001318  (-0.035994 -0.004676 -0.000494)
120:   1639.11   0.001888    9.54  0.000359  ( 0.007033  0.010756 -0.013938)
121:   1647.66   0.002362   11.94  0.000447  (-0.020879 -0.003148 -0.001233)
122:   1659.19   0.003885   19.63  0.000731  (-0.026697  0.004172 -0.000724)
123:   2940.94   0.011288   57.05  0.001198  ( 0.022771  0.007340  0.025009)
124:   2966.19   0.026102  131.91  0.002746  (-0.038616 -0.006365  0.034848)
125:   2973.83   0.007794   39.39  0.000818  ( 0.011217  0.001819  0.026245)
126:   2974.93   0.008094   40.90  0.000849  ( 0.024916  0.013199 -0.007349)
127:   2979.14   0.007775   39.29  0.000814  ( 0.000210  0.005420 -0.028018)
128:   2991.49   0.004508   22.78  0.000470  (-0.004461 -0.017392 -0.012160)
129:   2997.08   0.016719   84.49  0.001741  (-0.007607 -0.026459  0.031351)
130:   2997.35   0.005454   27.56  0.000568  (-0.018978 -0.009769  0.010596)
131:   2998.65   0.007958   40.22  0.000828  ( 0.020128 -0.020542  0.001009)
132:   3001.17   0.003497   17.67  0.000364  (-0.001635 -0.016018  0.010215)
133:   3014.89   0.007851   39.68  0.000813  ( 0.020386  0.016141  0.011687)
134:   3020.49   0.006411   32.40  0.000662  ( 0.011005 -0.023093 -0.002827)
135:   3020.94   0.015871   80.20  0.001639  ( 0.031198 -0.021812 -0.013795)
136:   3035.02   0.013275   67.09  0.001365  (-0.028248 -0.015548 -0.018034)
137:   3043.03   0.003479   17.58  0.000357  (-0.001832 -0.013366 -0.013219)
138:   3049.51   0.003447   17.42  0.000353  ( 0.000006  0.012200  0.014281)
139:   3060.21   0.002541   12.84  0.000259  ( 0.005109 -0.013535 -0.007061)
140:   3065.22   0.019525   98.67  0.001988  (-0.037453  0.004895  0.023686)
141:   3073.93   0.004664   23.57  0.000473  (-0.012288 -0.017407 -0.004409)
142:   3075.20   0.000830    4.19  0.000084  ( 0.004559 -0.006348  0.004810)
143:   3077.05   0.010182   51.45  0.001033  (-0.025215  0.010410 -0.016983)
144:   3081.09   0.001478    7.47  0.000150  (-0.002599  0.009172 -0.007671)
145:   3091.51   0.008025   40.56  0.000810  (-0.008850  0.020303 -0.017877)
146:   3100.37   0.005141   25.98  0.000517  (-0.014200  0.015849 -0.008037)
147:   3105.35   0.000221    1.12  0.000022  (-0.003576  0.002665  0.001535)
148:   3109.74   0.002449   12.37  0.000246  (-0.014276  0.004681 -0.004471)
149:   3121.82   0.005971   30.17  0.000597  (-0.010044  0.014343 -0.017036)
150:   3127.12   0.006366   32.17  0.000635  ( 0.023329 -0.008140  0.004982)
151:   3131.92   0.005568   28.14  0.000555  ( 0.014029 -0.014374  0.012305)
152:   3733.28   0.002033   10.28  0.000170  ( 0.000047 -0.010079 -0.008270)

* The epsilon (eps) is given for a Dirac delta lineshape.
** The dipole moment derivative (T) already includes vibrational overlap.

The first frequency considered to be a vibration is 6
The total number of vibrations considered is 147


--------------------------
THERMOCHEMISTRY AT 298.15K
--------------------------

Temperature         ...   298.15 K
Pressure            ...     1.00 atm
Total Mass          ...   286.46 AMU
Quasi RRHO          ...     True
Cut-Off Frequency   ...     1.00 cm^-1

Throughout the following assumptions are being made:
  (1) The electronic state is orbitally nondegenerate
  (2) There are no thermally accessible electronically excited states
  (3) Hindered rotations indicated by low frequency modes are not
      treated as such but are treated as vibrations and this may
      cause some error
  (4) All equations used are the standard statistical mechanics
      equations for an ideal gas
  (5) All vibrations are strictly harmonic

freq.      17.78  E(vib)   ...       0.57 
freq.      27.80  E(vib)   ...       0.55 
freq.      33.14  E(vib)   ...       0.55 
freq.      48.65  E(vib)   ...       0.53 
freq.      50.55  E(vib)   ...       0.52 
freq.      76.12  E(vib)   ...       0.49 
freq.      80.43  E(vib)   ...       0.48 
freq.      98.76  E(vib)   ...       0.46 
freq.     112.65  E(vib)   ...       0.45 
freq.     136.50  E(vib)   ...       0.42 
freq.     153.42  E(vib)   ...       0.40 
freq.     156.30  E(vib)   ...       0.40 
freq.     172.88  E(vib)   ...       0.38 
freq.     182.92  E(vib)   ...       0.37 
freq.     191.86  E(vib)   ...       0.36 
freq.     226.63  E(vib)   ...       0.33 
freq.     235.47  E(vib)   ...       0.32 
freq.     242.72  E(vib)   ...       0.31 
freq.     257.73  E(vib)   ...       0.30 
freq.     262.84  E(vib)   ...       0.29 
freq.     266.18  E(vib)   ...       0.29 
freq.     282.14  E(vib)   ...       0.28 
freq.     292.12  E(vib)   ...       0.27 
freq.     303.19  E(vib)   ...       0.26 
freq.     320.72  E(vib)   ...       0.25 
freq.     344.98  E(vib)   ...       0.23 
freq.     361.45  E(vib)   ...       0.22 
freq.     373.19  E(vib)   ...       0.21 
freq.     378.44  E(vib)   ...       0.21 
freq.     403.79  E(vib)   ...       0.19 
freq.     427.57  E(vib)   ...       0.18 
freq.     429.88  E(vib)   ...       0.18 
freq.     470.72  E(vib)   ...       0.15 
freq.     483.44  E(vib)   ...       0.15 
freq.     486.32  E(vib)   ...       0.15 
freq.     518.74  E(vib)   ...       0.13 
freq.     535.29  E(vib)   ...       0.13 
freq.     558.62  E(vib)   ...       0.12 
freq.     580.14  E(vib)   ...       0.11 
freq.     606.31  E(vib)   ...       0.10 
freq.     636.12  E(vib)   ...       0.09 
freq.     664.69  E(vib)   ...       0.08 
freq.     733.54  E(vib)   ...       0.06 
freq.     799.21  E(vib)   ...       0.05 
freq.     809.04  E(vib)   ...       0.05 
freq.     811.92  E(vib)   ...       0.05 
freq.     847.89  E(vib)   ...       0.04 
freq.     855.51  E(vib)   ...       0.04 
freq.     867.07  E(vib)   ...       0.04 
freq.     877.62  E(vib)   ...       0.04 
freq.     891.92  E(vib)   ...       0.03 
freq.     898.47  E(vib)   ...       0.03 
freq.     913.14  E(vib)   ...       0.03 
freq.     938.47  E(vib)   ...       0.03 
freq.     951.03  E(vib)   ...       0.03 
freq.     956.69  E(vib)   ...       0.03 
freq.     967.43  E(vib)   ...       0.03 
freq.     978.67  E(vib)   ...       0.03 
freq.     985.61  E(vib)   ...       0.02 
freq.     991.16  E(vib)   ...       0.02 
freq.    1000.96  E(vib)   ...       0.02 
freq.    1023.41  E(vib)   ...       0.02 
freq.    1027.71  E(vib)   ...       0.02 
freq.    1040.28  E(vib)   ...       0.02 
freq.    1048.95  E(vib)   ...       0.02 
freq.    1051.25  E(vib)   ...       0.02 
freq.    1053.71  E(vib)   ...       0.02 
freq.    1063.41  E(vib)   ...       0.02 
freq.    1077.36  E(vib)   ...       0.02 
freq.    1077.54  E(vib)   ...       0.02 
freq.    1143.52  E(vib)   ...       0.01 
freq.    1155.14  E(vib)   ...       0.01 
freq.    1188.06  E(vib)   ...       0.01 
freq.    1198.99  E(vib)   ...       0.01 
freq.    1201.82  E(vib)   ...       0.01 
freq.    1209.68  E(vib)   ...       0.01 
freq.    1223.81  E(vib)   ...       0.01 
freq.    1229.50  E(vib)   ...       0.01 
freq.    1233.52  E(vib)   ...       0.01 
freq.    1266.60  E(vib)   ...       0.01 
freq.    1282.15  E(vib)   ...       0.01 
freq.    1300.33  E(vib)   ...       0.01 
freq.    1310.83  E(vib)   ...       0.01 
freq.    1330.92  E(vib)   ...       0.01 
freq.    1341.82  E(vib)   ...       0.01 
freq.    1342.79  E(vib)   ...       0.01 
freq.    1350.56  E(vib)   ...       0.01 
freq.    1364.63  E(vib)   ...       0.01 
freq.    1377.16  E(vib)   ...       0.01 
freq.    1382.57  E(vib)   ...       0.01 
freq.    1383.71  E(vib)   ...       0.00 
freq.    1392.36  E(vib)   ...       0.00 
freq.    1398.03  E(vib)   ...       0.00 
freq.    1408.47  E(vib)   ...       0.00 
freq.    1412.33  E(vib)   ...       0.00 
freq.    1416.02  E(vib)   ...       0.00 
freq.    1419.97  E(vib)   ...       0.00 
freq.    1426.32  E(vib)   ...       0.00 
freq.    1472.37  E(vib)   ...       0.00 
freq.    1484.49  E(vib)   ...       0.00 
freq.    1488.67  E(vib)   ...       0.00 
freq.    1490.99  E(vib)   ...       0.00 
freq.    1491.57  E(vib)   ...       0.00 
freq.    1492.40  E(vib)   ...       0.00 
freq.    1496.16  E(vib)   ...       0.00 
freq.    1498.04  E(vib)   ...       0.00 
freq.    1499.22  E(vib)   ...       0.00 
freq.    1501.59  E(vib)   ...       0.00 
freq.    1504.38  E(vib)   ...       0.00 
freq.    1514.25  E(vib)   ...       0.00 
freq.    1520.95  E(vib)   ...       0.00 
freq.    1525.45  E(vib)   ...       0.00 
freq.    1595.43  E(vib)   ...       0.00 
freq.    1605.23  E(vib)   ...       0.00 
freq.    1639.11  E(vib)   ...       0.00 
freq.    1647.66  E(vib)   ...       0.00 
freq.    1659.19  E(vib)   ...       0.00 
freq.    2940.94  E(vib)   ...       0.00 
freq.    2966.19  E(vib)   ...       0.00 
freq.    2973.83  E(vib)   ...       0.00 
freq.    2974.93  E(vib)   ...       0.00 
freq.    2979.14  E(vib)   ...       0.00 
freq.    2991.49  E(vib)   ...       0.00 
freq.    2997.08  E(vib)   ...       0.00 
freq.    2997.35  E(vib)   ...       0.00 
freq.    2998.65  E(vib)   ...       0.00 
freq.    3001.17  E(vib)   ...       0.00 
freq.    3014.89  E(vib)   ...       0.00 
freq.    3020.49  E(vib)   ...       0.00 
freq.    3020.94  E(vib)   ...       0.00 
freq.    3035.02  E(vib)   ...       0.00 
freq.    3043.03  E(vib)   ...       0.00 
freq.    3049.51  E(vib)   ...       0.00 
freq.    3060.21  E(vib)   ...       0.00 
freq.    3065.22  E(vib)   ...       0.00 
freq.    3073.93  E(vib)   ...       0.00 
freq.    3075.20  E(vib)   ...       0.00 
freq.    3077.05  E(vib)   ...       0.00 
freq.    3081.09  E(vib)   ...       0.00 
freq.    3091.51  E(vib)   ...       0.00 
freq.    3100.37  E(vib)   ...       0.00 
freq.    3105.35  E(vib)   ...       0.00 
freq.    3109.74  E(vib)   ...       0.00 
freq.    3121.82  E(vib)   ...       0.00 
freq.    3127.12  E(vib)   ...       0.00 
freq.    3131.92  E(vib)   ...       0.00 
freq.    3733.28  E(vib)   ...       0.00 

------------
INNER ENERGY
------------

The inner energy is: U= E(el) + E(ZPE) + E(vib) + E(rot) + E(trans)
    E(el)   - is the total energy from the electronic structure calculation
              = E(kin-el) + E(nuc-el) + E(el-el) + E(nuc-nuc)
    E(ZPE)  - the the zero temperature vibrational energy from the frequency calculation
    E(vib)  - the the finite temperature correction to E(ZPE) due to population
              of excited vibrational states
    E(rot)  - is the rotational thermal energy
    E(trans)- is the translational thermal energy

Summary of contributions to the inner energy U:
Electronic energy                ...   -854.95805006 Eh
Zero point energy                ...      0.44835548 Eh     281.35 kcal/mol
Thermal vibrational correction   ...      0.02155974 Eh      13.53 kcal/mol
Thermal rotational correction    ...      0.00141627 Eh       0.89 kcal/mol
Thermal translational correction ...      0.00141627 Eh       0.89 kcal/mol
-----------------------------------------------------------------------
Total thermal energy                   -854.48530230 Eh


Summary of corrections to the electronic energy:
(perhaps to be used in another calculation)
Total thermal correction                  0.02439228 Eh      15.31 kcal/mol
Non-thermal (ZPE) correction              0.44835548 Eh     281.35 kcal/mol
-----------------------------------------------------------------------
Total correction                          0.47274776 Eh     296.65 kcal/mol


--------
ENTHALPY
--------

The enthalpy is H = U + kB*T
                kB is Boltzmann's constant
Total thermal energy              ...   -854.48530230 Eh 
Thermal Enthalpy correction       ...      0.00094421 Eh       0.59 kcal/mol
-----------------------------------------------------------------------
Total Enthalpy                    ...   -854.48435809 Eh


Note: Only C1 symmetry has been detected, increase convergence thresholds 
      if your molecule has a higher symmetry. Symmetry factor of 1.0 is   
      used for the rotational entropy correction. 
 

Note: Rotational entropy computed according to Herzberg 
Infrared and Raman Spectra, Chapter V,1, Van Nostrand Reinhold, 1945 
Point Group:  C1, Symmetry Number:   1  
Rotational constants in cm-1:     0.027138     0.002634     0.002536 

Vibrational entropy computed according to the QRRHO of S. Grimme
Chem.Eur.J. 2012 18 9955 using a reference frequency of 100.0 cm-1


-------
ENTROPY
-------

The entropy contributions are T*S = T*(S(el)+S(vib)+S(rot)+S(trans))
     S(el)   - electronic entropy
     S(vib)  - vibrational entropy
     S(rot)  - rotational entropy
     S(trans)- translational entropy
The entropies will be listed as multiplied by the temperature to get
units of energy

Electronic entropy                ...      0.00000000 Eh      0.00 kcal/mol
Vibrational entropy               ...      0.03845008 Eh     24.13 kcal/mol
Rotational entropy                ...      0.01683912 Eh     10.57 kcal/mol
Translational entropy             ...      0.02036176 Eh     12.78 kcal/mol
-----------------------------------------------------------------------
Final entropy term                ...      0.07565097 Eh     47.47 kcal/mol

In case the symmetry of your molecule has not been determined correctly
or in case you have a reason to use a different symmetry number we print 
out the resulting rotational entropy values for sn=1,12:

 non-linear molecules -----------------------------------
|  sn= 1 | S(rot)=       0.01683912 Eh     10.57 kcal/mol|
|  sn= 2 | S(rot)=       0.01618467 Eh     10.16 kcal/mol|
|  sn= 3 | S(rot)=       0.01580183 Eh      9.92 kcal/mol|
|  sn= 4 | S(rot)=       0.01553021 Eh      9.75 kcal/mol|
|  sn= 5 | S(rot)=       0.01531952 Eh      9.61 kcal/mol|
|  sn= 6 | S(rot)=       0.01514738 Eh      9.51 kcal/mol|
|  sn= 7 | S(rot)=       0.01500183 Eh      9.41 kcal/mol|
|  sn= 8 | S(rot)=       0.01487575 Eh      9.33 kcal/mol|
|  sn= 9 | S(rot)=       0.01476454 Eh      9.26 kcal/mol|
|  sn=10 | S(rot)=       0.01466507 Eh      9.20 kcal/mol|
|  sn=11 | S(rot)=       0.01457508 Eh      9.15 kcal/mol|
|  sn=12 | S(rot)=       0.01449292 Eh      9.09 kcal/mol|
 linear molecules ---------------------------------------
|  Dinfh | S(rot)=       0.01096923 Eh      6.88 kcal/mol|
|  Cinfv | S(rot)=       0.01162369 Eh      7.29 kcal/mol|
 --------------------------------------------------------


-------------------
GIBBS FREE ENERGY
-------------------

The Gibbs free energy is G = H - T*S

Total enthalpy                    ...   -854.48435809 Eh 
Total entropy correction          ...     -0.07565097 Eh    -47.47 kcal/mol
-----------------------------------------------------------------------
Final Gibbs free energy         ...   -854.56000906 Eh

For completeness - the Gibbs free energy minus the electronic energy
G-E(el)                           ...      0.39804100 Eh    249.77 kcal/mol


Maximum memory used throughout the entire PROP-calculation: 135.6 MB

--------------------------------
SUGGESTED CITATIONS FOR THIS RUN
--------------------------------

Below you find a list of papers that are relevant to this ORCA run
We neither can nor want to force you to cite these papers, but we appreciate if you do
You receive ORCA, which is the product of decades of hard work by many enthusiastic individuals, for free
The only thing we kindly ask in return is that you cite our papers,
We deeply appreciate it, if you show your appreciation for ORCA by not just citing the generic ORCA reference.

Please note that relegating all ORCA citations to the supporting information does *not* help us.
SI sections are not indexed - citations you put there will not count into any citation statistics
But we need these citations in order to attract the funding resources that allow us to do what we are doing

Therefore, if you are a happy ORCA user, please consider citing a few of the papers listed below in the main body of your paper

In addition to the list printed below, the program has created the file m1_00_Vitamin_A-QM3_001-B97-3C-TZ.bibtex that contains the list in bibtex format
You can import this file easily into all common literature databanks and citation aid programs


List of essential papers. We consider these as the minimum necessary citations

  1. Neese,F.
     Software update: the ORCA program system, version 5.0
     WIRES Comput. Molec. Sci., 2022 12(1)e1606
     doi.org/10.1002/wcms.1606

List of papers to cite with high priority. The work reported in these papers was absolutely
necessary for this run to complete.
Our perspective: the developers of density functionals and basis sets usually get cited in chemistry papers
Good! But without the algorithms to do something with them, the functionals or basis sets would not do anything.
Hence, in our opinion, the algorithm design and method developments papers are equally worthy of getting cited

  1. Neese,F.
     An improvement of the resolution of the identity approximation for the formation of the Coulomb matrix
     J. Comp. Chem., 2003 24(14)1740-1747
     doi.org/10.1002/jcc.10318
  2. Bykov,D.; Petrenko,T.; Izsak,R.; Kossmann,S.; Becker,U.; Valeev,E.; Neese,F.
     Efficient implementation of the analytic second derivatives of Hartree-Fock and hybrid DFT energies: a detailed analysis of different approximations
     Molec. Phys., 2015 113 1961-1977
     doi.org/10.1080/00268976.2015.1025114
  3. Neese,F.
     The SHARK Integral Generation and Digestion System
     J. Comp. Chem., 2022  1-16
     doi.org/10.1002/jcc.26942
  4. Grimme,S.; Antony,J.; Ehrlich,S.; Krieg,H.
     A consistent and accurate ab initio parametrization of density functional dispersion correction (DFT-D) for the 94 elements H-Pu
     J. Chem. Phys., 2010 132 154104
     doi.org/10.1063/1.3382344
  5. Grimme,S.; Ehrlich,S.; Goerigk,L.
     Effect of the damping function in dispersion corrected density functional theory
     J. Comput. Chem., 2011 32(7)1456-1465
     doi.org/10.1002/jcc.21759

List of suggested additional citations. These are papers that are important in the 'surrounding' of 
of this run, or papers that preceded the highly important papers. If you like your results we are grateful for a citation.

  1. Neese,F.
     The ORCA program system
     WIRES Comput. Molec. Sci., 2012 2(1)73-78
     doi.org/10.1002/wcms.81
  2. Neese,F.
     Software update: the ORCA program system, version 4.0
     WIRES Comput. Molec. Sci., 2018 8(1)1-6
     doi.org/10.1002/wcms.1327
  3. Neese,F.; Wennmohs,F.; Becker,U.; Riplinger,C.
     The ORCA quantum chemistry program package
     J. Chem. Phys., 2020 152 Art. No. L224108
     doi.org/10.1063/5.0004608

List of optional additional citations

  1. Neese,F.
     Approximate second-order SCF convergence for spin unrestricted wavefunctions
     Chem. Phys. Lett., 2000 325(1-3)93-98
     doi.org/10.1016/s0009-2614(00)00662-x

Timings for individual modules:

Sum of individual times          ...      552.411 sec (=   9.207 min)
Startup calculation              ...       53.976 sec (=   0.900 min)   9.8 %
SCF iterations                   ...      108.181 sec (=   1.803 min)  19.6 %
Property integrals               ...      118.173 sec (=   1.970 min)  21.4 %
SCF Response                     ...      153.612 sec (=   2.560 min)  27.8 %
Property calculations            ...       52.844 sec (=   0.881 min)   9.6 %
SCF Gradient evaluation          ...       65.458 sec (=   1.091 min)  11.8 %
Geometry relaxation              ...        0.166 sec (=   0.003 min)   0.0 %
                             ****ORCA TERMINATED NORMALLY****
TOTAL RUN TIME: 0 days 0 hours 9 minutes 15 seconds 156 msec
