
                                 *****************
                                 * O   R   C   A *
                                 *****************

                                            #,                                       
                                            ###                                      
                                            ####                                     
                                            #####                                    
                                            ######                                   
                                           ########,                                 
                                     ,,################,,,,,                         
                               ,,#################################,,                 
                          ,,##########################################,,             
                       ,#########################################, ''#####,          
                    ,#############################################,,   '####,        
                  ,##################################################,,,,####,       
                ,###########''''           ''''###############################       
              ,#####''   ,,,,##########,,,,          '''####'''          '####       
            ,##' ,,,,###########################,,,                        '##       
           ' ,,###''''                  '''############,,,                           
         ,,##''                                '''############,,,,        ,,,,,,###''
      ,#''                                            '''#######################'''  
     '                                                          ''''####''''         
             ,#######,   #######,   ,#######,      ##                                
            ,#'     '#,  ##    ##  ,#'     '#,    #''#        ,####,   ,####,        
            ##       ##  ##   ,#'  ##            #'  '#       #'       #'  '#        
            ##       ##  #######   ##           ,######,      #####,   #    #        
            '#,     ,#'  ##    ##  '#,     ,#' ,#      #,     #,   #   #,  ,#        
             '#######'   ##     ##  '#######'  #'      '#     '####' # '####'        



                #########################################################
                #                        -***-                          #
                #          Department of theory and spectroscopy        #
                #                                                       #
                #                      Frank Neese                      #
                #                                                       #
                #     Directorship, Architecture, Infrastructure        #
                #                    SHARK, DRIVERS                     #
                #        Core code/Algorithms in most modules           #
                #                                                       #
                #        Max Planck Institute fuer Kohlenforschung      #
                #                Kaiser Wilhelm Platz 1                 #
                #                 D-45470 Muelheim/Ruhr                 #
                #                      Germany                          #
                #                                                       #
                #                  All rights reserved                  #
                #                        -***-                          #
                #########################################################


                         Program Version 6.0.1  -  RELEASE   -


 With contributions from (in alphabetic order):
[Max-Planck-Institut fuer Kohlenforschung]                               
  Daniel Aravena         : Magnetic Suceptibility                        
  Michael Atanasov       : Ab Initio Ligand Field Theory (pilot matlab implementation)
  Alexander A. Auer      : GIAO ZORA, VPT2 properties, NMR spectrum      
  Ute Becker             : All parallelization in ORCA, NUMFREQ, NUMCALC 
  Giovanni Bistoni       : ED, misc. LED, open-shell LED, HFLD           
  Martin Brehm           : Molecular dynamics                            
  Dmytro Bykov           : pre 5.0 version of the SCF Hessian            
  Marcos Casanova-Páez   : Triplet and SCS-CIS(D). UHF-(DLPNO)-IP/EA/STEOM-CCSD. UHF-CVS-IP/STEOM-CCSD   
  Vijay G. Chilkuri      : MRCI spin determinant printing, contributions to CSF-ICE 
  Pauline Colinet        : FMM embedding                                 
  Dipayan Datta          : RHF DLPNO-CCSD density                        
  Achintya Kumar Dutta   : EOM-CC, STEOM-CC                              
  Nicolas Foglia         : Exact transition moments, OPA infrastructure, MCD improvements    
  Dmitry Ganyushin       : Spin-Orbit,Spin-Spin,Magnetic field MRCI      
  Miquel Garcia-Rates    : C-PCM and meta-GGA Hessian, CCSD/C-PCM, Gaussian charge scheme 
  Tiago L. C. Gouveia    : GS-ROHF, GS-ROCIS                             
  Yang Guo               : DLPNO-NEVPT2, F12-NEVPT2, CIM, IAO-localization        
  Andreas Hansen         : Spin unrestricted coupled pair/coupled cluster methods 
  Ingolf Harden          : AUTO-CI MPn and infrastructure                
  Benjamin Helmich-Paris : MC-RPA, TRAH-(SCF,CASSCF), AVAS, COSX integrals, SCF dyn. polar. 
  Lee Huntington         : MR-EOM, pCC                                   
  Robert Izsak           : Overlap fitted RIJCOSX, COSX-SCS-MP3, EOM     
  Riya Kayal             : Wick's Theorem for AUTO-CI, AUTO-CI UHF-CCSDT 
  Emily Kempfer          : AUTO-CI, RHF CISDT and CCSDT                  
  Christian Kollmar      : KDIIS, OOCD, Brueckner-CCSD(T), CCSD density, CASPT2, CASPT2-K, improved NEVPT2 
  Axel Koslowski         : Symmetry handling                             
  Simone Kossmann        : meta-GGA functionals, TD-DFT gradient, OOMP2, (MP2 Hessian; deprecated post 5.0) 
  Lucas Lang             : DCDCAS                                        
  Marvin Lechner         : AUTO-CI (C++ implementation), FIC-MRCC        
  Spencer Leger          : CASSCF response                               
  Dagmar Lenk            : GEPOL surface, SMD, ORCA-2-JSON               
  Dimitrios Liakos       : Extrapolation schemes; Compound Job, initial MDCI parallelization 
  Dimitrios Manganas     : Further ROCIS development; embedding schemes. LFT, Crystal Embedding 
  Dimitrios Pantazis     : SARC Basis sets                               
  Anastasios Papadopoulos: AUTO-CI, single reference methods and gradients 
  Taras Petrenko         : pre 6.0 DFT Hessian and TD-DFT gradient, (ASA, deprecated), ECA, 1-Electron XAS/XES, NRVS 
  Peter Pinski           : DLPNO-MP2, DLPNO-MP2 Gradient                 
  Christoph Reimann      : Effective Core Potentials                     
  Marius Retegan         : Local ZFS, SOC                                
  Christoph Riplinger    : Optimizer, TS searches, QM/MM, DLPNO-CCSD(T), (RO)-DLPNO pert. Triples 
  Michael Roemelt        : Original ROCIS implementation                 
  Masaaki Saitow         : Open-shell DLPNO-CCSD energy and density      
  Barbara Sandhoefer     : DKH picture change effects                    
  Kantharuban Sivalingam : CASSCF convergence/infrastructure, NEVPT2 and variants, FIC-MRCI 
  Bernardo de Souza      : ESD, SOC TD-DFT                               
  Georgi L. Stoychev     : AutoAux, RI-MP2 NMR, DLPNO-MP2 response, X2C  
  Van Anh Tran           : RI-MP2 g-tensors                              
  Willem Van den Heuvel  : Paramagnetic NMR                              
  Zikuan Wang            : NOTCH, Electric field optimization            
  Frank Wennmohs         : Technical directorship and infrastructure     
  Hang Xu                : AUTO-CI-Response properties                   
                                                                         
[FACCTs GmbH]                                                            
  Markus Bursch, Miquel Garcia-Rates, Christoph Riplinger, Bernardo de Souza, Georgi L. Stoychev 
                                                                 
  APM, Basis sets (HGBS, AHGBS, def-TZVP (Ac-Lr), def2-XVPD (La-Lu)), CI-OPT, improved COSX, DLPNO-Multilevel,           
  DOCKER, DRACO, updates on ESD, GOAT, IRC, LR-CPCM, MBIS, meta-GGA TD-DFT gradient, ML-optimized integration grids, 
  MM, NACMEs, nearIR, NEB, NEB-TS, NL-DFT gradient (VV10), 2- and 3-layer-ONIOM, interface openCOSMO-RS, QMMM,   
  Crystal-QMMM, SF, symmetry and pop. for TD-DFT, r2SCAN hybrids, SOLVATOR                                   
                                                                         
[Other institutions]                                                     
  V. Asgeirsson          : NEB                                           
  Christoph Bannwarth    : sTDA-DFT, sTD-DFT, PBEh-3c, B97-3c, D3        
  Sebastian Ehlert       : rSCAN, r2SCAN, r2SCAN-3c, D4, dhf basis sets  
  Marvin Friede          : D4 for Fr, Ra, Ac-Lr                          
  Lars Goerigk           : TD-DFT with DH, B97 family of functionals     
  Stefan Grimme          : VdW corrections, initial TS optimization, DFT functionals, gCP, sTDA/sTD-DF 
  Waldemar Hujo          : DFT-NL                                        
  H. Jonsson             : NEB                                           
  Holger Kruse           : gCP                                           
  Marcel Mueller         : wB97X-3c, vDZP basis set                      
  Hagen Neugebauer       : wr2SCAN                                       
  Tobias Risthaus        : range-separated hybrid DFT                    
  Lukas Wittmann         : regularized MP2, r2SCAN double-hybrids, wr2SCAN        
                                                                         
We gratefully acknowledge several colleagues who have allowed us to      
interface, adapt or use parts of their codes:                            
  Ed Valeev, F. Pavosevic, A. Kumar             : LibInt (2-el integral package), F12 methods 
  Garnet Chan, S. Sharma, J. Yang, R. Olivares  : DMRG                   
  Ulf Ekstrom                                   : XCFun DFT Library      
  Mihaly Kallay                                 : mrcc  (arbitrary order and MRCC methods)
  Frank Weinhold                                : gennbo (NPA and NBO analysis)           
  Simon Mueller                                 : openCOSMO-RS                            
  Christopher J. Cramer and Donald G. Truhlar   : smd solvation model                     
  S Lehtola, MJT Oliveira, MAL Marques          : LibXC Library                           
  Liviu Ungur et al                             : ANISO software                          


 Your calculation uses the libint2 library for the computation of 2-el integrals
 For citations please refer to: http://libint.valeyev.net

 Your ORCA version has been built with support for libXC version: 6.2.2
 For citations please refer to: https://libxc.gitlab.io

 This ORCA versions uses:
   CBLAS   interface :  Fast vector & matrix operations
   LAPACKE interface :  Fast linear algebra routines
   SCALAPACK package :  Parallel linear algebra routines
   Shared memory     :  Shared parallel matrices
   BLAS/LAPACK       :  OpenBLAS 0.3.27  USE64BITINT DYNAMIC_ARCH NO_AFFINITY Zen SINGLE_THREADED
        Core in use  :  Zen
   Copyright (c) 2011-2014, The OpenBLAS Project


NOTE: MaxCore=6000 MB was set to SCF,MP2,MDCI,CIPSI,MRCI and CIS
      => If you want to overwrite this, your respective input block should be placed after the MaxCore statement
Your calculation utilizes the atom-pairwise dispersion correction
with the Becke-Johnson damping scheme (D3BJ)


Your calculation employs the composite approach B97-3c by Grimme and coworkers.
For the correct reference, please check the publication list of the Grimme group:
http://www.thch.uni-bonn.de/tc/index.php?section=publikationen&subsection=grimme#2017
   

XCFun DFT library Copyright 2009-2010 Ulf Ekstrom and contributors.
See http://admol.org/xcfun for more information.
This is free software; see the source code for copying conditions.
There is ABSOLUTELY NO WARRANTY; not even for MERCHANTABILITY or FITNESS FOR A PARTICULAR PURPOSE.
For details see the documentation.
Scientific users of this library should cite U. Ekstrom, L. Visscher, R. Bast, A. J. Thorvaldsen and K. Ruud;
J.Chem.Theor.Comp. 2010, DOI: 10.1021/ct100117s
XCFun Version 0.99 

================================================================================

----- Orbital basis set information -----
Your calculation utilizes the basis: def2-mTZVP
----- AuxJ basis set information -----
Your calculation utilizes the basis: def2-mTZVP/J
================================================================================
                                        WARNINGS
                       Please study these warnings very carefully!
================================================================================


WARNING: Geometry Optimization
  ===> : Switching off AutoStart
         For restart on a previous wavefunction, please use MOREAD

================================================================================
                                       INPUT FILE
================================================================================
NAME = m1_00_Vitamin_A-QM3_000-B97-3C-TZ.inp
|  1> %pal nprocs 16 end
|  2> %MaxCore 6000
|  3> # put your comments here
|  4> ! B97-3C  OPT  FREQ DEFGRID3 NOTRAH
|  5> %scf MaxIter 800 end
|  6> %output
|  7> Print [P_Hirshfeld] 1
|  8> end
|  9> %geom
| 10> MaxIter 3000
| 11>  TolE 1e-6 #TolE 5e-6 Energy change (a.u.)
| 12>  TolRMSG 3e-5 #TolRMSG 1e-4 RMS gradient (a.u.)
| 13>  TolMaxG 1e-4 #TolMaxG 3e-3 Max. element of gradient (a.u.)
| 14>  TolRMSD 2e-3 #TolRMSD 2e-3 RMS displacement (a.u.)
| 15>  TolMaxD 4e-3 #TolMaxD 4e-3 Max. displacement (a.u.)
| 16> end
| 17> * xyz 0 1
| 18>  O       8.30523427      -1.76991665      -0.25279938
| 19>  C      -4.00662833      -0.34979388       1.05975226
| 20>  C      -5.47317474      -0.27586239       0.64519887
| 21>  C      -5.65340460      -0.38305222      -0.84925419
| 22>  C      -3.14230713       0.51764290       0.15436548
| 23>  C      -4.96422204       0.77924696      -1.52616926
| 24>  C      -3.57264083       1.01873665      -1.00620776
| 25>  C      -3.50074742      -1.79162662       0.96589742
| 26>  C      -3.89567523       0.11690266       2.51549986
| 27>  C      -1.75042609       0.74260689       0.63262333
| 28>  C      -2.73013984       1.89827843      -1.89709288
| 29>  C      -0.66836398       0.30153168      -0.00075188
| 30>  C       0.73687039       0.48417425       0.44094211
| 31>  C       0.96596186       1.24364143       1.71920020
| 32>  C       1.72065715      -0.03066619      -0.31444804
| 33>  C       3.16595705       0.03978725      -0.05642761
| 34>  C       4.07808991      -0.50547476      -0.86522996
| 35>  C       5.54631990      -0.47176825      -0.66084521
| 36>  C       6.07061591       0.26018860       0.54325708
| 37>  C       6.34394650      -1.08253500      -1.54362570
| 38>  C       7.85043587      -1.14678133      -1.44726148
| 39>  H      -5.89464359       0.67563248       0.97555784
| 40>  H      -6.04040687      -1.05531998       1.16077512
| 41>  H      -6.71823038      -0.39950054      -1.11142453
| 42>  H      -5.23015026      -1.32253827      -1.21075969
| 43>  H      -5.54755900       1.69801226      -1.38302929
| 44>  H      -4.91900553       0.62483533      -2.61051117
| 45>  H      -3.57854261      -2.18019876      -0.04688254
| 46>  H      -2.45730416      -1.86389774       1.26312864
| 47>  H      -4.07258801      -2.45453155       1.61519824
| 48>  H      -4.58845986      -0.43846749       3.14807102
| 49>  H      -2.89761231      -0.03798289       2.91841743
| 50>  H      -4.13526586       1.17459696       2.61842832
| 51>  H      -1.63821565       1.27346690       1.56979509
| 52>  H      -2.41044385       1.35022163      -2.78868214
| 53>  H      -1.84356102       2.27211569      -1.39519729
| 54>  H      -3.31752808       2.75278474      -2.24212497
| 55>  H      -0.80003768      -0.24727373      -0.92660411
| 56>  H       2.02178259       1.33011479       1.95902204
| 57>  H       0.55111735       2.25123799       1.64629921
| 58>  H       0.46838539       0.74700638       2.55499647
| 59>  H       1.44443346      -0.56120060      -1.22016717
| 60>  H       3.49024533       0.55967667       0.83395215
| 61>  H       3.73619967      -1.02567219      -1.75446877
| 62>  H       5.73203122       1.29841138       0.53285020
| 63>  H       7.15378412       0.24350381       0.57631331
| 64>  H       5.69675394      -0.19691251       1.46095827
| 65>  H       5.88974977      -1.58490028      -2.39307853
| 66>  H       8.28605107      -0.13983557      -1.45070787
| 67>  H       8.24266286      -1.67438966      -2.32988043
| 68>  H       7.94999935      -2.66425564      -0.22686810
| 69> *
| 70> 
| 71> 
| 72> 
| 73> 
| 74>                          ****END OF INPUT****
================================================================================

                       *****************************
                       * Geometry Optimization Run *
                       *****************************

Geometry optimization settings:
Update method            Update   .... BFGS
Choice of coordinates    CoordSys .... (2022) Redundant Internals
Initial Hessian          InHess   .... Almloef's Model
Max. no of cycles        MaxIter  .... 3000

Convergence Tolerances:
Energy Change            TolE     ....  1.0000e-06 Eh
Max. Gradient            TolMAXG  ....  1.0000e-04 Eh/bohr
RMS Gradient             TolRMSG  ....  3.0000e-05 Eh/bohr
Max. Displacement        TolMAXD  ....  4.0000e-03 bohr
RMS Displacement         TolRMSD  ....  2.0000e-03 bohr
Strict Convergence                .... False

------------------------------------------------------------------------------
                        ORCA OPTIMIZATION COORDINATE SETUP
------------------------------------------------------------------------------

The optimization will be done in redundant internal coordinates (2022)
Making redundant internal coordinates   ...  (2022 redundants) done
Evaluating the initial hessian          ...  (Almloef) done
Evaluating the coordinates              ...  done
Calculating the B-matrix                .... done
Calculating the G-matrix                .... done
Diagonalizing the G-matrix              .... done
Small eigenvalue found = 1.012e-03
Small eigenvalue found = 3.086e-03
Small eigenvalue found = 5.744e-03
Small eigenvalue found = 7.318e-03
Small eigenvalue found = 1.310e-02
Small eigenvalue found = 1.558e-02
Small eigenvalue found = 2.274e-02
Small eigenvalue found = 2.539e-02
The first mode is                       ....   94
The number of degrees of freedom        ....  147

    -----------------------------------------------------------------
                    Redundant Internal Coordinates


    -----------------------------------------------------------------
         Definition                    Initial Value    Approx d2E/dq
    -----------------------------------------------------------------
      1. B(C   2,C   1)                  1.5258         0.379377   
      2. B(C   3,C   2)                  1.5091         0.403397   
      3. B(C   4,C   1)                  1.5229         0.383447   
      4. B(C   5,C   3)                  1.5113         0.400092   
      5. B(C   6,C   5)                  1.5047         0.409915   
      6. B(C   6,C   4)                  1.3354         0.763656   
      7. B(C   7,C   1)                  1.5309         0.372363   
      8. B(C   8,C   1)                  1.5327         0.369822   
      9. B(C   9,C   4)                  1.4888         0.434541   
     10. B(C  10,C   6)                  1.5090         0.403537   
     11. B(C  11,C   9)                  1.3291         0.781381   
     12. B(C  12,C  11)                  1.4843         0.441870   
     13. B(C  13,C  12)                  1.5044         0.410414   
     14. B(C  14,C  12)                  1.3429         0.742687   
     15. B(C  15,C  14)                  1.4698         0.465971   
     16. B(C  16,C  15)                  1.3355         0.763398   
     17. B(C  17,C  16)                  1.4828         0.444354   
     18. B(C  18,C  17)                  1.5035         0.411773   
     19. B(C  19,C  17)                  1.3374         0.758078   
     20. B(C  20,C  19)                  1.5109         0.400677   
     21. B(C  20,O   0)                  1.4219         0.497664   
     22. B(H  21,C   2)                  1.0918         0.357674   
     23. B(H  22,C   2)                  1.0932         0.355868   
     24. B(H  23,C   3)                  1.0967         0.351282   
     25. B(H  24,C   3)                  1.0920         0.357464   
     26. B(H  25,C   5)                  1.0977         0.350083   
     27. B(H  26,C   5)                  1.0962         0.351973   
     28. B(H  27,C   7)                  1.0875         0.363357   
     29. B(H  28,C   7)                  1.0874         0.363615   
     30. B(H  29,C   7)                  1.0900         0.360139   
     31. B(H  30,C   8)                  1.0902         0.359837   
     32. B(H  31,C   8)                  1.0874         0.363542   
     33. B(H  32,C   8)                  1.0894         0.360942   
     34. B(H  33,C   9)                  1.0829         0.369602   
     35. B(H  34,C  10)                  1.0943         0.354450   
     36. B(H  35,C  10)                  1.0852         0.366496   
     37. B(H  36,C  10)                  1.0928         0.356390   
     38. B(H  37,C  11)                  1.0843         0.367707   
     39. B(H  38,C  13)                  1.0862         0.365212   
     40. B(H  39,C  13)                  1.0921         0.357345   
     41. B(H  40,C  13)                  1.0921         0.357272   
     42. B(H  41,C  14)                  1.0854         0.366237   
     43. B(H  42,C  15)                  1.0808         0.372418   
     44. B(H  43,C  16)                  1.0855         0.366146   
     45. B(H  44,C  18)                  1.0921         0.357349   
     46. B(H  45,C  18)                  1.0838         0.368395   
     47. B(H  46,C  18)                  1.0913         0.358412   
     48. B(H  47,C  19)                  1.0864         0.364912   
     49. B(H  48,C  20)                  1.0971         0.350780   
     50. B(H  49,C  20)                  1.1006         0.346400   
     51. B(H  50,O   0)                  0.9627         0.514908   
     52. A(C  20,O   0,H  50)          108.1637         0.355883   
     53. A(C   2,C   1,C   7)          110.2792         0.364108   
     54. A(C   2,C   1,C   4)          110.8781         0.365940   
     55. A(C   7,C   1,C   8)          108.7282         0.362524   
     56. A(C   4,C   1,C   7)          108.2080         0.364773   
     57. A(C   4,C   1,C   8)          110.4954         0.364346   
     58. A(C   2,C   1,C   8)          108.2322         0.363682   
     59. A(C   1,C   2,H  21)          109.3322         0.324780   
     60. A(H  21,C   2,H  22)          106.1623         0.289992   
     61. A(C   1,C   2,H  22)          109.6352         0.324510   
     62. A(C   1,C   2,C   3)          112.3590         0.369138   
     63. A(C   3,C   2,H  22)          110.7583         0.327805   
     64. A(C   3,C   2,H  21)          108.3869         0.328079   
     65. A(C   2,C   3,C   5)          109.5398         0.372529   
     66. A(C   5,C   3,H  23)          110.3164         0.326662   
     67. A(H  23,C   3,H  24)          106.5156         0.289376   
     68. A(C   5,C   3,H  24)          109.6713         0.327603   
     69. A(C   2,C   3,H  24)          110.0388         0.328047   
     70. A(C   2,C   3,H  23)          110.7164         0.327105   
     71. A(C   1,C   4,C   9)          115.1935         0.374582   
     72. A(C   6,C   4,C   9)          121.5840         0.422772   
     73. A(C   1,C   4,C   6)          123.1982         0.413454   
     74. A(H  25,C   5,H  26)          105.5935         0.288521   
     75. A(C   3,C   5,H  25)          110.0575         0.326479   
     76. A(C   6,C   5,H  26)          109.0311         0.328077   
     77. A(C   3,C   5,H  26)          110.7030         0.326768   
     78. A(C   6,C   5,H  25)          108.2515         0.327786   
     79. A(C   3,C   5,C   6)          112.9141         0.373560   
     80. A(C   4,C   6,C   5)          122.5899         0.418393   
     81. A(C   5,C   6,C  10)          113.8971         0.374112   
     82. A(C   4,C   6,C  10)          123.4973         0.417226   
     83. A(H  28,C   7,H  29)          107.4691         0.291289   
     84. A(H  27,C   7,H  29)          107.4529         0.291256   
     85. A(H  27,C   7,H  28)          107.4249         0.291696   
     86. A(C   1,C   7,H  28)          111.2812         0.324663   
     87. A(C   1,C   7,H  27)          111.7133         0.324626   
     88. A(C   1,C   7,H  29)          111.2796         0.324152   
     89. A(H  30,C   8,H  32)          107.4591         0.290913   
     90. A(C   1,C   8,H  32)          111.6816         0.323906   
     91. A(H  30,C   8,H  31)          107.1995         0.291241   
     92. A(C   1,C   8,H  31)          112.0235         0.324288   
     93. A(C   1,C   8,H  30)          110.4858         0.323743   
     94. A(H  31,C   8,H  32)          107.7672         0.291381   
     95. A(C  11,C   9,H  33)          119.3883         0.368740   
     96. A(C   4,C   9,H  33)          116.6755         0.333950   
     97. A(C   4,C   9,C  11)          123.9090         0.424510   
     98. A(H  34,C  10,H  36)          106.9417         0.289647   
     99. A(C   6,C  10,H  36)          110.0026         0.327903   
    100. A(H  34,C  10,H  35)          108.0995         0.290921   
    101. A(C   6,C  10,H  35)          112.5736         0.329420   
    102. A(C   6,C  10,H  34)          110.6227         0.327608   
    103. A(H  35,C  10,H  36)          108.4077         0.291171   
    104. A(C   9,C  11,C  12)          126.0231         0.425782   
    105. A(C  12,C  11,H  37)          115.5525         0.334593   
    106. A(C   9,C  11,H  37)          118.4242         0.368415   
    107. A(C  13,C  12,C  14)          124.0498         0.416414   
    108. A(C  11,C  12,C  14)          118.6188         0.421933   
    109. A(C  11,C  12,C  13)          117.3313         0.380109   
    110. A(H  39,C  13,H  40)          107.3118         0.290130   
    111. A(H  38,C  13,H  40)          108.0652         0.291123   
    112. A(C  12,C  13,H  40)          110.5669         0.328953   
    113. A(H  38,C  13,H  39)          108.0916         0.291133   
    114. A(C  12,C  13,H  39)          110.5612         0.328964   
    115. A(C  12,C  13,H  38)          112.0753         0.330150   
    116. A(C  12,C  14,C  15)          127.1002         0.425959   
    117. A(C  15,C  14,H  41)          114.8443         0.337337   
    118. A(C  12,C  14,H  41)          118.0556         0.364971   
    119. A(C  14,C  15,C  16)          123.0739         0.428063   
    120. A(C  16,C  15,H  42)          119.3654         0.367748   
    121. A(C  14,C  15,H  42)          117.5607         0.338280   
    122. A(C  15,C  16,C  17)          125.7006         0.424437   
    123. A(C  17,C  16,H  43)          115.8297         0.334668   
    124. A(C  15,C  16,H  43)          118.4696         0.366679   
    125. A(C  18,C  17,C  19)          122.8879         0.418184   
    126. A(C  16,C  17,C  19)          119.2880         0.423907   
    127. A(C  16,C  17,C  18)          117.8239         0.380697   
    128. A(H  45,C  18,H  46)          108.0769         0.291667   
    129. A(H  44,C  18,H  46)          107.4580         0.290275   
    130. A(C  17,C  18,H  46)          110.4931         0.329306   
    131. A(H  44,C  18,H  45)          108.9522         0.291531   
    132. A(C  17,C  18,H  45)          111.4350         0.330805   
    133. A(C  17,C  18,H  44)          110.3087         0.329144   
    134. A(C  17,C  19,C  20)          124.8885         0.416155   
    135. A(C  20,C  19,H  47)          116.5550         0.328798   
    136. A(C  17,C  19,H  47)          118.5524         0.366028   
    137. A(O   0,C  20,C  19)          113.0239         0.383982   
    138. A(H  48,C  20,H  49)          107.2156         0.287891   
    139. A(C  19,C  20,H  49)          108.9399         0.325989   
    140. A(O   0,C  20,H  49)          110.4631         0.335858   
    141. A(C  19,C  20,H  48)          110.8948         0.326664   
    142. A(O   0,C  20,H  48)          106.1320         0.336561   
    143. D(C   3,C   2,C   1,C   7)    -75.3096         0.011473   
    144. D(C   3,C   2,C   1,C   8)    165.8675         0.011473   
    145. D(H  21,C   2,C   1,C   8)     45.4855         0.011473   
    146. D(C   3,C   2,C   1,C   4)     44.5225         0.011473   
    147. D(H  21,C   2,C   1,C   7)    164.3084         0.011473   
    148. D(H  21,C   2,C   1,C   4)    -75.8594         0.011473   
    149. D(C   5,C   3,C   2,H  22)    174.8178         0.012904   
    150. D(H  23,C   3,C   2,H  22)     52.9398         0.012904   
    151. D(C   5,C   3,C   2,C   1)    -62.1930         0.012904   
    152. D(H  23,C   3,C   2,C   1)    175.9291         0.012904   
    153. D(H  23,C   3,C   2,H  21)    -63.1442         0.012904   
    154. D(C   5,C   3,C   2,H  21)     58.7337         0.012904   
    155. D(C   6,C   4,C   1,C   8)   -133.8295         0.010960   
    156. D(C   6,C   4,C   1,C   7)    107.2367         0.010960   
    157. D(C   6,C   4,C   1,C   2)    -13.8256         0.010960   
    158. D(C   9,C   4,C   1,C   2)    167.9438         0.010960   
    159. D(C   9,C   4,C   1,C   7)    -70.9939         0.010960   
    160. D(H  25,C   5,C   3,C   2)    -74.2812         0.012700   
    161. D(H  25,C   5,C   3,H  23)     47.8363         0.012700   
    162. D(C   6,C   5,C   3,H  24)    -74.0603         0.012700   
    163. D(C   6,C   5,C   3,C   2)     46.8037         0.012700   
    164. D(H  25,C   5,C   3,H  24)    164.8547         0.012700   
    165. D(C   6,C   5,C   3,H  23)    168.9212         0.012700   
    166. D(C   4,C   6,C   5,H  26)   -140.8759         0.012445   
    167. D(C   4,C   6,C   5,H  25)    104.7200         0.012445   
    168. D(C   4,C   6,C   5,C   3)    -17.3848         0.012445   
    169. D(C  10,C   6,C   4,C   9)     -2.9665         0.041737   
    170. D(C  10,C   6,C   4,C   1)    178.9131         0.041737   
    171. D(C   5,C   6,C   4,C   9)    178.5656         0.041737   
    172. D(C  10,C   6,C   5,C   3)    164.0126         0.012445   
    173. D(C   5,C   6,C   4,C   1)      0.4452         0.041737   
    174. D(C  10,C   6,C   5,H  25)    -73.8825         0.012445   
    175. D(H  28,C   7,C   1,C   8)    -61.1817         0.011076   
    176. D(H  28,C   7,C   1,C   4)     58.8655         0.011076   
    177. D(H  28,C   7,C   1,C   2)   -179.7016         0.011076   
    178. D(H  27,C   7,C   1,C   8)    178.7507         0.011076   
    179. D(H  27,C   7,C   1,C   4)    -61.2021         0.011076   
    180. D(H  27,C   7,C   1,C   2)     60.2309         0.011076   
    181. D(H  31,C   8,C   1,C   7)     52.4447         0.010934   
    182. D(H  31,C   8,C   1,C   4)    -66.1728         0.010934   
    183. D(H  31,C   8,C   1,C   2)    172.2461         0.010934   
    184. D(H  30,C   8,C   1,C   7)    -67.0032         0.010934   
    185. D(H  30,C   8,C   1,C   4)    174.3793         0.010934   
    186. D(H  30,C   8,C   1,C   2)     52.7982         0.010934   
    187. D(H  33,C   9,C   4,C   6)    118.7773         0.012893   
    188. D(H  33,C   9,C   4,C   1)    -62.9608         0.012893   
    189. D(C  11,C   9,C   4,C   6)    -63.1368         0.012893   
    190. D(C  11,C   9,C   4,C   1)    115.1251         0.012893   
    191. D(H  36,C  10,C   6,C   4)   -134.8091         0.012076   
    192. D(H  35,C  10,C   6,C   5)    164.7939         0.012076   
    193. D(H  35,C  10,C   6,C   4)    -13.7942         0.012076   
    194. D(H  34,C  10,C   6,C   5)    -74.1468         0.012076   
    195. D(H  34,C  10,C   6,C   4)    107.2651         0.012076   
    196. D(H  37,C  11,C   9,H  33)    178.6566         0.043901   
    197. D(H  37,C  11,C   9,C   4)      0.6197         0.043901   
    198. D(C  12,C  11,C   9,H  33)     -1.1798         0.043901   
    199. D(C  12,C  11,C   9,C   4)   -179.2168         0.043901   
    200. D(C  14,C  12,C  11,H  37)     -0.1131         0.013320   
    201. D(C  14,C  12,C  11,C   9)    179.7275         0.013320   
    202. D(C  13,C  12,C  11,H  37)    179.8326         0.013320   
    203. D(C  13,C  12,C  11,C   9)     -0.3268         0.013320   
    204. D(H  38,C  13,C  12,C  14)      0.1821         0.012474   
    205. D(H  38,C  13,C  12,C  11)   -179.7604         0.012474   
    206. D(H  40,C  13,C  12,C  11)     59.6035         0.012474   
    207. D(H  39,C  13,C  12,C  14)    120.8477         0.012474   
    208. D(H  39,C  13,C  12,C  11)    -59.0948         0.012474   
    209. D(H  41,C  14,C  12,C  13)   -179.9554         0.039263   
    210. D(H  41,C  14,C  12,C  11)     -0.0136         0.039263   
    211. D(C  15,C  14,C  12,C  13)      0.0126         0.039263   
    212. D(C  15,C  14,C  12,C  11)    179.9545         0.039263   
    213. D(H  42,C  15,C  14,H  41)    179.9257         0.014787   
    214. D(H  42,C  15,C  14,C  12)     -0.0433         0.014787   
    215. D(C  16,C  15,C  14,H  41)     -0.1349         0.014787   
    216. D(C  16,C  15,C  14,C  12)    179.8961         0.014787   
    217. D(H  43,C  16,C  15,H  42)    179.8941         0.041706   
    218. D(H  43,C  16,C  15,C  14)     -0.0443         0.041706   
    219. D(C  17,C  16,C  15,H  42)      0.0532         0.041706   
    220. D(C  17,C  16,C  15,C  14)   -179.8852         0.041706   
    221. D(C  19,C  17,C  16,H  43)     -1.0098         0.013466   
    222. D(C  19,C  17,C  16,C  15)    178.8349         0.013466   
    223. D(C  18,C  17,C  16,H  43)    178.8474         0.013466   
    224. D(C  18,C  17,C  16,C  15)     -1.3080         0.013466   
    225. D(H  46,C  18,C  17,C  16)     61.4244         0.012554   
    226. D(H  45,C  18,C  17,C  19)      1.4486         0.012554   
    227. D(H  45,C  18,C  17,C  16)   -178.4030         0.012554   
    228. D(H  44,C  18,C  17,C  19)    122.6022         0.012554   
    229. D(H  44,C  18,C  17,C  16)    -57.2494         0.012554   
    230. D(H  47,C  19,C  17,C  18)   -179.5589         0.041070   
    231. D(H  47,C  19,C  17,C  16)      0.2907         0.041070   
    232. D(C  20,C  19,C  17,C  18)      1.2069         0.041070   
    233. D(C  20,C  19,C  17,C  16)   -178.9436         0.041070   
    234. D(H  49,C  20,C  19,C  17)   -177.6752         0.011913   
    235. D(H  48,C  20,C  19,H  47)    120.8477         0.011913   
    236. D(H  48,C  20,C  19,C  17)    -59.9042         0.011913   
    237. D(O   0,C  20,C  19,H  47)   -120.1145         0.011913   
    238. D(O   0,C  20,C  19,C  17)     59.1336         0.011913   
    239. D(H  49,C  20,O   0,H  50)    -63.2095         0.019574   
    240. D(H  48,C  20,O   0,H  50)   -179.1082         0.019574   
    241. D(C  19,C  20,O   0,H  50)     59.1344         0.019574   
    -----------------------------------------------------------------

Number of atoms                         .... 51
Number of degrees of freedom            .... 241


         *************************************************************
         *                GEOMETRY OPTIMIZATION CYCLE   1            *
         *************************************************************
---------------------------------
CARTESIAN COORDINATES (ANGSTROEM)
---------------------------------
  O      8.305234   -1.769917   -0.252799
  C     -4.006628   -0.349794    1.059752
  C     -5.473175   -0.275862    0.645199
  C     -5.653405   -0.383052   -0.849254
  C     -3.142307    0.517643    0.154365
  C     -4.964222    0.779247   -1.526169
  C     -3.572641    1.018737   -1.006208
  C     -3.500747   -1.791627    0.965897
  C     -3.895675    0.116903    2.515500
  C     -1.750426    0.742607    0.632623
  C     -2.730140    1.898278   -1.897093
  C     -0.668364    0.301532   -0.000752
  C      0.736870    0.484174    0.440942
  C      0.965962    1.243641    1.719200
  C      1.720657   -0.030666   -0.314448
  C      3.165957    0.039787   -0.056428
  C      4.078090   -0.505475   -0.865230
  C      5.546320   -0.471768   -0.660845
  C      6.070616    0.260189    0.543257
  C      6.343946   -1.082535   -1.543626
  C      7.850436   -1.146781   -1.447261
  H     -5.894644    0.675632    0.975558
  H     -6.040407   -1.055320    1.160775
  H     -6.718230   -0.399501   -1.111425
  H     -5.230150   -1.322538   -1.210760
  H     -5.547559    1.698012   -1.383029
  H     -4.919006    0.624835   -2.610511
  H     -3.578543   -2.180199   -0.046883
  H     -2.457304   -1.863898    1.263129
  H     -4.072588   -2.454532    1.615198
  H     -4.588460   -0.438467    3.148071
  H     -2.897612   -0.037983    2.918417
  H     -4.135266    1.174597    2.618428
  H     -1.638216    1.273467    1.569795
  H     -2.410444    1.350222   -2.788682
  H     -1.843561    2.272116   -1.395197
  H     -3.317528    2.752785   -2.242125
  H     -0.800038   -0.247274   -0.926604
  H      2.021783    1.330115    1.959022
  H      0.551117    2.251238    1.646299
  H      0.468385    0.747006    2.554996
  H      1.444433   -0.561201   -1.220167
  H      3.490245    0.559677    0.833952
  H      3.736200   -1.025672   -1.754469
  H      5.732031    1.298411    0.532850
  H      7.153784    0.243504    0.576313
  H      5.696754   -0.196913    1.460958
  H      5.889750   -1.584900   -2.393079
  H      8.286051   -0.139836   -1.450708
  H      8.242663   -1.674390   -2.329880
  H      7.949999   -2.664256   -0.226868

----------------------------
CARTESIAN COORDINATES (A.U.)
----------------------------
  NO LB      ZA    FRAG     MASS         X           Y           Z
   0 O     8.0000    0    15.999   15.694618   -3.344658   -0.477722
   1 C     6.0000    0    12.011   -7.571430   -0.661015    2.002642
   2 C     6.0000    0    12.011  -10.342801   -0.521304    1.219249
   3 C     6.0000    0    12.011  -10.683386   -0.723864   -1.604858
   4 C     6.0000    0    12.011   -5.938100    0.978203    0.291708
   5 C     6.0000    0    12.011   -9.381020    1.472563   -2.884042
   6 C     6.0000    0    12.011   -6.751313    1.925133   -1.901457
   7 C     6.0000    0    12.011   -6.615454   -3.385684    1.825282
   8 C     6.0000    0    12.011   -7.361759    0.220914    4.753606
   9 C     6.0000    0    12.011   -3.307826    1.403324    1.195485
  10 C     6.0000    0    12.011   -5.159217    3.587226   -3.584986
  11 C     6.0000    0    12.011   -1.263025    0.569812   -0.001421
  12 C     6.0000    0    12.011    1.392483    0.914957    0.833260
  13 C     6.0000    0    12.011    1.825403    2.350142    3.248818
  14 C     6.0000    0    12.011    3.251571   -0.057951   -0.594221
  15 C     6.0000    0    12.011    5.982792    0.075187   -0.106633
  16 C     6.0000    0    12.011    7.706473   -0.955209   -1.635048
  17 C     6.0000    0    12.011   10.481026   -0.891513   -1.248816
  18 C     6.0000    0    12.011   11.471802    0.491685    1.026607
  19 C     6.0000    0    12.011   11.988321   -2.045695   -2.917030
  20 C     6.0000    0    12.011   14.835174   -2.167103   -2.734928
  21 H     1.0000    0     1.008  -11.139262    1.276760    1.843537
  22 H     1.0000    0     1.008  -11.414715   -1.994266    2.193547
  23 H     1.0000    0     1.008  -12.695616   -0.754947   -2.100288
  24 H     1.0000    0     1.008   -9.883552   -2.499235   -2.288004
  25 H     1.0000    0     1.008  -10.483367    3.208778   -2.613547
  26 H     1.0000    0     1.008   -9.295573    1.180768   -4.933151
  27 H     1.0000    0     1.008   -6.762465   -4.119979   -0.088595
  28 H     1.0000    0     1.008   -4.643632   -3.522256    2.386967
  29 H     1.0000    0     1.008   -7.696076   -4.638392    3.052282
  30 H     1.0000    0     1.008   -8.670933   -0.828583    5.948992
  31 H     1.0000    0     1.008   -5.475694   -0.071777    5.515010
  32 H     1.0000    0     1.008   -7.814520    2.219667    4.948112
  33 H     1.0000    0     1.008   -3.095779    2.406504    2.966483
  34 H     1.0000    0     1.008   -4.555079    2.551549   -5.269846
  35 H     1.0000    0     1.008   -3.483825    4.293676   -2.636541
  36 H     1.0000    0     1.008   -6.269220    5.202009   -4.237002
  37 H     1.0000    0     1.008   -1.511852   -0.467280   -1.751028
  38 H     1.0000    0     1.008    3.820615    2.513553    3.702015
  39 H     1.0000    0     1.008    1.041461    4.254223    3.111055
  40 H     1.0000    0     1.008    0.885120    1.411637    4.828244
  41 H     1.0000    0     1.008    2.729584   -1.060515   -2.305782
  42 H     1.0000    0     1.008    6.595608    1.057636    1.575941
  43 H     1.0000    0     1.008    7.060394   -1.938240   -3.315465
  44 H     1.0000    0     1.008   10.831969    2.453642    1.006941
  45 H     1.0000    0     1.008   13.518693    0.460156    1.089074
  46 H     1.0000    0     1.008   10.765305   -0.372111    2.760811
  47 H     1.0000    0     1.008   11.130014   -2.995027   -4.522263
  48 H     1.0000    0     1.008   15.658367   -0.264251   -2.741441
  49 H     1.0000    0     1.008   15.576375   -3.164138   -4.402836
  50 H     1.0000    0     1.008   15.023322   -5.034714   -0.428719

--------------------------------
INTERNAL COORDINATES (ANGSTROEM)
--------------------------------
 O      0   0   0     0.000000000000     0.00000000     0.00000000
 C      1   0   0    12.462804707241     0.00000000     0.00000000
 C      2   1   0     1.525804296448   157.88481185     0.00000000
 C      3   2   1     1.509093241200   112.35898749   354.97493068
 C      2   1   3     1.522899512596    56.05588770   301.01462676
 C      4   3   2     1.511332523580   109.53978420   297.80703055
 C      5   2   1     1.335369718486   123.19815312   145.97295739
 C      2   1   5     1.530884017890    63.88174696   138.54712873
 C      2   1   5     1.532748291714    93.62411801   247.64946346
 C      5   2   1     1.488849286326   115.19351305   327.74238662
 C      7   5   2     1.508998992032   123.49731413   178.91307568
 C     10   5   2     1.329123736684   123.90895843   115.12509838
 C     12  10   5     1.484296305933   126.02308916   180.78320578
 C     13  12  10     1.504399230183   117.33132038   359.67323230
 C     13  12  10     1.342948750522   118.61883290   179.72748680
 C     15  13  12     1.469840137717   127.10015422   179.95447372
 C     16  15  13     1.335461813459   123.07388794   179.89611706
 C     17  16  15     1.482770568357   125.70058478   180.11482882
 C     18  17  16     1.503499072546   117.82390379   358.69200924
 C     18  17  16     1.337365174310   119.28798733   178.83487964
 C      1   2   3     1.421927888471    73.89259722    33.99776772
 H      3   2   1     1.091840431664   109.33215080   234.59298505
 H      3   2   1     1.093217861854   109.63524194   118.59304001
 H      4   3   2     1.096748729728   110.71639220   175.92905051
 H      4   3   2     1.092000229397   110.03877929    58.44807454
 H      6   4   3     1.097679705742   110.05747434   285.71879573
 H      6   4   3     1.096213876047   110.70296075   169.36549111
 H      8   2   1     1.087549376787   111.71331355   263.47846889
 H      8   2   1     1.087356128308   111.28117674    23.54604499
 H      8   2   1     1.089970715865   111.27961908   143.37631852
 H      9   2   1     1.090198522994   110.48577942   229.37502623
 H      9   2   1     1.087410545329   112.02347531   348.82294097
 H      9   2   1     1.089364571718   111.68163226   109.82385492
 H     10   5   2     1.082910172084   116.67554591   297.03924880
 H     11   7   5     1.094304889231   110.62265264   107.26512188
 H     11   7   5     1.085207576595   112.57364326   346.20576378
 H     11   7   5     1.092818887762   110.00259396   225.19092739
 H     12  10   5     1.084309777284   118.42423687     0.61966540
 H     14  13  12     1.086162773634   112.07534707   180.23956185
 H     14  13  12     1.092090357774   110.56119222   300.90519506
 H     14  13  12     1.092146565866   110.56686100    59.60353619
 H     15  13  12     1.085400124175   118.05555850     0.00000000
 H     16  15  13     1.080844121320   117.56070923   359.95668944
 H     17  16  15     1.085467624389   118.46957425   359.95574952
 H     19  18  17     1.092087192657   110.30866958   302.75063420
 H     19  18  17     1.083800935465   111.43500838   181.59696288
 H     19  18  17     1.091278915540   110.49311517    61.42442876
 H     20  18  17     1.086386512475   118.55238897     0.29067687
 H     21   1   2     1.097138206270   106.13202987   113.30135570
 H     21   1   2     1.100558391213   110.46305149   229.20005071
 H      1   2   3     0.962655965911    74.83967679   279.51539672

---------------------------
INTERNAL COORDINATES (A.U.)
---------------------------
 O      0   0   0     0.000000000000     0.00000000     0.00000000
 C      1   0   0    23.551287757229     0.00000000     0.00000000
 C      2   1   0     2.883352254246   157.88481185     0.00000000
 C      3   2   1     2.851772936419   112.35898749   354.97493068
 C      2   1   3     2.877863008289    56.05588770   301.01462676
 C      4   3   2     2.856004566854   109.53978420   297.80703055
 C      5   2   1     2.523483055470   123.19815312   145.97295739
 C      2   1   5     2.892951536608    63.88174696   138.54712873
 C      2   1   5     2.896474503576    93.62411801   247.64946346
 C      5   2   1     2.813517405841   115.19351305   327.74238662
 C      7   5   2     2.851594831304   123.49731413   178.91307568
 C     10   5   2     2.511679860427   123.90895843   115.12509838
 C     12  10   5     2.804913519805   126.02308916   180.78320578
 C     13  12  10     2.842902541127   117.33132038   359.67323230
 C     13  12  10     2.537805350378   118.61883290   179.72748680
 C     15  13  12     2.777595320931   127.10015422   179.95447372
 C     16  15  13     2.523657089747   123.07388794   179.89611706
 C     17  16  15     2.802030293633   125.70058478   180.11482882
 C     18  17  16     2.841201489717   117.82390379   358.69200924
 C     18  17  16     2.527253920490   119.28798733   178.83487964
 C      1   2   3     2.687054291394    73.89259722    33.99776772
 H      3   2   1     2.063279397787   109.33215080   234.59298505
 H      3   2   1     2.065882363615   109.63524194   118.59304001
 H      4   3   2     2.072554736911   110.71639220   175.92905051
 H      4   3   2     2.063581371740   110.03877929    58.44807454
 H      6   4   3     2.074314026616   110.05747434   285.71879573
 H      6   4   3     2.071544009933   110.70296075   169.36549111
 H      8   2   1     2.055170479243   111.71331355   263.47846889
 H      8   2   1     2.054805292542   111.28117674    23.54604499
 H      8   2   1     2.059746146978   111.27961908   143.37631852
 H      9   2   1     2.060176640065   110.48577942   229.37502623
 H      9   2   1     2.054908125810   112.02347531   348.82294097
 H      9   2   1     2.058600700543   111.68163226   109.82385492
 H     10   5   2     2.046403652877   116.67554591   297.03924880
 H     11   7   5     2.067936547658   110.62265264   107.26512188
 H     11   7   5     2.050745118220   112.57364326   346.20576378
 H     11   7   5     2.065128411847   110.00259396   225.19092739
 H     12  10   5     2.049048523399   118.42423687     0.61966540
 H     14  13  12     2.052550179029   112.07534707   180.23956185
 H     14  13  12     2.063751689690   110.56119222   300.90519506
 H     14  13  12     2.063857907589   110.56686100    59.60353619
 H     15  13  12     2.051108980415   118.05555850     0.00000000
 H     16  15  13     2.042499382753   117.56070923   359.95668944
 H     17  16  15     2.051236537333   118.46957425   359.95574952
 H     19  18  17     2.063745708484   110.30866958   302.75063420
 H     19  18  17     2.048086951716   111.43500838   181.59696288
 H     19  18  17     2.062218286094   110.49311517    61.42442876
 H     20  18  17     2.052972984163   118.55238897     0.29067687
 H     21   1   2     2.073290740912   106.13202987   113.30135570
 H     21   1   2     2.079753953781   110.46305149   229.20005071
 H      1   2   3     1.819156136757    74.83967679   279.51539672

---------------------
BASIS SET INFORMATION
---------------------
There are 3 groups of distinct atoms

 Group   1 Type O   : 11s6p2d contracted to 5s3p2d pattern {62111/411/11}
 Group   2 Type C   : 11s6p1d contracted to 5s3p1d pattern {62111/411/1}
 Group   3 Type H   : 5s contracted to 3s pattern {311}

Atom   0O    basis set group =>   1
Atom   1C    basis set group =>   2
Atom   2C    basis set group =>   2
Atom   3C    basis set group =>   2
Atom   4C    basis set group =>   2
Atom   5C    basis set group =>   2
Atom   6C    basis set group =>   2
Atom   7C    basis set group =>   2
Atom   8C    basis set group =>   2
Atom   9C    basis set group =>   2
Atom  10C    basis set group =>   2
Atom  11C    basis set group =>   2
Atom  12C    basis set group =>   2
Atom  13C    basis set group =>   2
Atom  14C    basis set group =>   2
Atom  15C    basis set group =>   2
Atom  16C    basis set group =>   2
Atom  17C    basis set group =>   2
Atom  18C    basis set group =>   2
Atom  19C    basis set group =>   2
Atom  20C    basis set group =>   2
Atom  21H    basis set group =>   3
Atom  22H    basis set group =>   3
Atom  23H    basis set group =>   3
Atom  24H    basis set group =>   3
Atom  25H    basis set group =>   3
Atom  26H    basis set group =>   3
Atom  27H    basis set group =>   3
Atom  28H    basis set group =>   3
Atom  29H    basis set group =>   3
Atom  30H    basis set group =>   3
Atom  31H    basis set group =>   3
Atom  32H    basis set group =>   3
Atom  33H    basis set group =>   3
Atom  34H    basis set group =>   3
Atom  35H    basis set group =>   3
Atom  36H    basis set group =>   3
Atom  37H    basis set group =>   3
Atom  38H    basis set group =>   3
Atom  39H    basis set group =>   3
Atom  40H    basis set group =>   3
Atom  41H    basis set group =>   3
Atom  42H    basis set group =>   3
Atom  43H    basis set group =>   3
Atom  44H    basis set group =>   3
Atom  45H    basis set group =>   3
Atom  46H    basis set group =>   3
Atom  47H    basis set group =>   3
Atom  48H    basis set group =>   3
Atom  49H    basis set group =>   3
Atom  50H    basis set group =>   3
---------------------------------
AUXILIARY/J BASIS SET INFORMATION
---------------------------------
There are 3 groups of distinct atoms

 Group   1 Type O   : 8s3p3d contracted to 6s3p3d pattern {311111/111/111}
 Group   2 Type C   : 8s3p3d contracted to 6s3p3d pattern {311111/111/111}
 Group   3 Type H   : 5s2p contracted to 3s1p pattern {311/2}

Atom   0O    basis set group =>   1
Atom   1C    basis set group =>   2
Atom   2C    basis set group =>   2
Atom   3C    basis set group =>   2
Atom   4C    basis set group =>   2
Atom   5C    basis set group =>   2
Atom   6C    basis set group =>   2
Atom   7C    basis set group =>   2
Atom   8C    basis set group =>   2
Atom   9C    basis set group =>   2
Atom  10C    basis set group =>   2
Atom  11C    basis set group =>   2
Atom  12C    basis set group =>   2
Atom  13C    basis set group =>   2
Atom  14C    basis set group =>   2
Atom  15C    basis set group =>   2
Atom  16C    basis set group =>   2
Atom  17C    basis set group =>   2
Atom  18C    basis set group =>   2
Atom  19C    basis set group =>   2
Atom  20C    basis set group =>   2
Atom  21H    basis set group =>   3
Atom  22H    basis set group =>   3
Atom  23H    basis set group =>   3
Atom  24H    basis set group =>   3
Atom  25H    basis set group =>   3
Atom  26H    basis set group =>   3
Atom  27H    basis set group =>   3
Atom  28H    basis set group =>   3
Atom  29H    basis set group =>   3
Atom  30H    basis set group =>   3
Atom  31H    basis set group =>   3
Atom  32H    basis set group =>   3
Atom  33H    basis set group =>   3
Atom  34H    basis set group =>   3
Atom  35H    basis set group =>   3
Atom  36H    basis set group =>   3
Atom  37H    basis set group =>   3
Atom  38H    basis set group =>   3
Atom  39H    basis set group =>   3
Atom  40H    basis set group =>   3
Atom  41H    basis set group =>   3
Atom  42H    basis set group =>   3
Atom  43H    basis set group =>   3
Atom  44H    basis set group =>   3
Atom  45H    basis set group =>   3
Atom  46H    basis set group =>   3
Atom  47H    basis set group =>   3
Atom  48H    basis set group =>   3
Atom  49H    basis set group =>   3
Atom  50H    basis set group =>   3


           ************************************************************
           *        Program running with 16 parallel MPI-processes    *
           *              working on a common directory               *
           ************************************************************
------------------------------------------------------------------------------
                             ORCA STARTUP CALCULATIONS
                           -- RI-GTO INTEGRALS CHOSEN --
------------------------------------------------------------------------------
------------------------------------------------------------------------------
                   ___                                                        
                  /   \      - P O W E R E D   B Y -                         
                 /     \                                                     
                 |  |  |   _    _      __       _____    __    __             
                 |  |  |  | |  | |    /  \     |  _  \  |  |  /  |          
                  \  \/   | |  | |   /    \    | | | |  |  | /  /          
                 / \  \   | |__| |  /  /\  \   | |_| |  |  |/  /          
                |  |  |   |  __  | /  /__\  \  |    /   |      \           
                |  |  |   | |  | | |   __   |  |    \   |  |\   \          
                \     /   | |  | | |  |  |  |  | |\  \  |  | \   \       
                 \___/    |_|  |_| |__|  |__|  |_| \__\ |__|  \__/        
                                                                              
                      - O R C A' S   B I G   F R I E N D -                    
                                      &                                       
                       - I N T E G R A L  F E E D E R -                       
                                                                              
 v1 FN, 2020, v2 2021, v3 2022-2024                                           
------------------------------------------------------------------------------


----------------------
SHARK INTEGRAL PACKAGE
----------------------

Number of atoms                             ...     51
Number of basis functions                   ...    494
Number of shells                            ...    280
Maximum angular momentum                    ...      2
Integral batch strategy                     ... SHARK/LIBINT Hybrid
RI-J (if used) integral strategy            ... SPLIT-RIJ (Revised 2003 algorithm where possible)
Printlevel                                  ...      1
Contraction scheme used                     ... SEGMENTED contraction
Prescreening option                         ... SCHWARTZ
   Thresh                                   ... 2.500e-11
   Tcut                                     ... 2.500e-12
   Tpresel                                  ... 2.500e-12 
Coulomb Range Separation                    ... NOT USED
Exchange Range Separation                   ... NOT USED
Multipole approximations                    ... NOT USED
Finite Nucleus Model                        ... NOT USED
CABS basis                                  ... NOT available
Auxiliary Coulomb fitting basis             ... AVAILABLE
   # of basis functions in Aux-J            ...    810
   # of shells in Aux-J                     ...    372
   Maximum angular momentum in Aux-J        ...      2
Auxiliary J/K fitting basis                 ... NOT available
Auxiliary Correlation fitting basis         ... NOT available
Auxiliary 'external' fitting basis          ... NOT available

Checking pre-screening integrals            ... done (  0.0 sec) Dimension = 280
Check shell pair data                       ... done (  0.0 sec)
Shell pair information
Shell pair cut-off parameter TPreSel        ...   2.5e-12
Total number of shell pairs                 ...     39340
Shell pairs after pre-screening             ...     24325
Total number of primitive shell pairs       ...    140737
Primitive shell pairs kept                  ...     55830
          la=0 lb=0:  11274 shell pairs
          la=1 lb=0:   8259 shell pairs
          la=1 lb=1:   1493 shell pairs
          la=2 lb=0:   2304 shell pairs
          la=2 lb=1:    870 shell pairs
          la=2 lb=2:    125 shell pairs

Calculating one electron integrals          ... done (  0.0 sec)
Calculating RI/J V-Matrix + Cholesky decomp.... done (  0.0 sec)
Calculating Nuclear repulsion               ... done (  0.0 sec) ENN=   1566.799618738059 Eh

Diagonalization of the overlap matrix:
Smallest eigenvalue                        ... 2.192e-05
Time for diagonalization                   ...    0.022 sec
Threshold for overlap eigenvalues          ... 1.000e-07
Number of eigenvalues below threshold      ... 0
Time for construction of square roots      ...    0.012 sec
Total time needed                          ...    0.036 sec

-------------------
DFT GRID GENERATION
-------------------

General Integration Accuracy     IntAcc      ... 4.959
Radial Grid Type                 RadialGrid  ... OptM3 with GC (2021)
Angular Grid (max. ang.)         AngularGrid ... 6 (Lebedev-590)
Angular grid pruning method      GridPruning ... 4 (adaptive)
Weight generation scheme         WeightScheme... mBecke (2022)
Basis function cutoff            BFCut       ... 1.0000e-11
Integration weight cutoff        WCut        ... 1.0000e-14
Partially contracted basis set               ... off
Rotationally invariant grid construction     ... off
Angular grids for H and He will be reduced by one unit
Diffuse basis detected: some atoms will have their outermost
                        angular grid increased by 1.

Total number of grid points                  ...   552557
Total number of batches                      ...     8656
Average number of points per batch           ...       63
Average number of grid points per atom       ...    10834
Initializing property integral containers    ... done (  0.0 sec)

SHARK setup successfully completed in   4.0 seconds

Maximum memory used throughout the entire STARTUP-calculation: 123.2 MB


           ************************************************************
           *        Program running with 16 parallel MPI-processes    *
           *              working on a common directory               *
           ************************************************************
-------------------------------------------------------------------------------
                                 ORCA GUESS
                   Start orbitals & Density for SCF / CASSCF
-------------------------------------------------------------------------------

------------
SCF SETTINGS
------------
Hamiltonian:
 Density Functional     Method          .... DFT(GTOs)
 Exchange Functional    Exchange        .... B973C
 Correlation Functional Correlation     .... B973C
 Gradients option       PostSCFGGA      .... off
 RI-approximation to the Coulomb term is turned on
   Number of AuxJ basis functions       .... 810


General Settings:
 Integral files         IntName         .... m1_00_Vitamin_A-QM3_000-B97-3C-TZ
 Hartree-Fock type      HFTyp           .... RHF
 Total Charge           Charge          ....    0
 Multiplicity           Mult            ....    1
 Number of Electrons    NEL             ....  158
 Basis Dimension        Dim             ....  494
 Nuclear Repulsion      ENuc            ....   1566.7996187381 Eh

Convergence Acceleration:
 AO-DIIS                CNVDIIS         .... on
   Start iteration      DIISMaxIt       ....    12
   Startup error        DIISStart       ....  0.200000
   # of expansion vecs  DIISMaxEq       ....     5
   Bias factor          DIISBfac        ....   1.050
   Max. coefficient     DIISMaxC        ....  10.000
 MO-DIIS                CNVKDIIS        .... off
 Trust-Rad. Augm. Hess. CNVTRAH         .... off
 SOSCF                  CNVSOSCF        .... on
   Start iteration      SOSCFMaxIt      ....   150
   Startup grad/error   SOSCFStart      ....  0.003300
   Hessian update       SOSCFHessUp     .... L-BFGS
 Level Shifting         CNVShift        .... on
   Level shift para.    LevelShift      ....    0.2500
   Turn off err/grad.   ShiftErr        ....    0.0010
 Zerner damping         CNVZerner       .... off
 Static damping         CNVDamp         .... on
   Fraction old density DampFac         ....    0.7000
   Max. Damping (<1)    DampMax         ....    0.9800
   Min. Damping (>=0)   DampMin         ....    0.0000
   Turn off err/grad.   DampErr         ....    0.1000

SCF Procedure:
 Maximum # iterations   MaxIter         ....   800
 SCF integral mode      SCFMode         .... Direct
   Integral package                     .... SHARK and LIBINT hybrid scheme
 Reset frequency        DirectResetFreq ....    20
 Integral Threshold     Thresh          ....  2.500e-11 Eh
 Primitive CutOff       TCut            ....  2.500e-12 Eh

Convergence Tolerance:
 Convergence Check Mode ConvCheckMode   .... Total+1el-Energy
 Convergence forced     ConvForced      .... 0
 Energy Change          TolE            ....  1.000e-08 Eh
 1-El. energy change                    ....  1.000e-05 Eh
 Orbital Gradient       TolG            ....  1.000e-05
 Orbital Rotation angle TolX            ....  1.000e-05
 DIIS Error             TolErr          ....  5.000e-07

--------------------------------
INITIAL GUESS: MINIMAL BASIS EHT
--------------------------------
The minimal basis has 135 functions
EHT matrix was diagonalized
Basis set overlap was calculated now projecting the orbitals
Using GuessMode=FMatrix for the initial guess
C*T matrix was formed
Effective Fockian was calculated
Effective Fockian was diagonalized
Initial density was built
                      ------------------
                      INITIAL GUESS DONE
                      ------------------
             **** ENERGY FILE WAS UPDATED (m1_00_Vitamin_A-QM3_000-B97-3C-TZ.en.tmp) ****
Finished Guess after   0.3 sec
Maximum memory used throughout the entire GUESS-calculation: 41.6 MB


           ************************************************************
           *        Program running with 16 parallel MPI-processes    *
           *              working on a common directory               *
           ************************************************************

-------------------------------------------------------------------------------------------
                                      ORCA LEAN-SCF
                              memory conserving SCF solver
-------------------------------------------------------------------------------------------

----------------------------------------D-I-I-S--------------------------------------------
Iteration    Energy (Eh)           Delta-E    RMSDP     MaxDP     DIISErr   Damp  Time(sec)
-------------------------------------------------------------------------------------------
               ***  Starting incremental Fock matrix formation  ***
    1    -852.6724480676562052     0.00e+00  3.77e-03  1.31e-01  4.63e-01  0.700   0.8
Warning: op=0 Small HOMO/LUMO gap (   0.082) - skipping pre-diagonalization
         Will do a full diagonalization
    2    -853.2937287567870044    -6.21e-01  3.26e-03  1.43e-01  3.26e-01  0.700   0.8
    3    -853.7115515136806607    -4.18e-01  2.19e-03  6.47e-02  2.28e-01  0.700   0.7
                               ***Turning on AO-DIIS***
    4    -854.0020819720825784    -2.91e-01  1.64e-03  5.42e-02  1.59e-01  0.700   0.7
    5    -854.2019404676088925    -2.00e-01  1.15e-03  3.48e-02  1.11e-01  0.700   0.8
    6    -854.3457465968367615    -1.44e-01  8.13e-04  2.36e-02  7.76e-02  0.700   0.7
    7    -854.4474007065591650    -1.02e-01  1.92e-03  5.45e-02  5.43e-02  0.000   0.7
    8    -854.6827851644256953    -2.35e-01  2.72e-04  2.75e-02  2.20e-02  0.000   0.8
    9    -854.6832355320188981    -4.50e-04  4.86e-05  3.76e-03  1.47e-02  0.000   0.7
                              *** Initializing SOSCF ***
---------------------------------------S-O-S-C-F--------------------------------------
Iteration    Energy (Eh)           Delta-E    RMSDP     MaxDP     MaxGrad    Time(sec)
--------------------------------------------------------------------------------------
   10    -854.6834795230656709    -2.44e-04  2.97e-05  2.28e-03  2.42e-03     0.8
               *** Restarting incremental Fock matrix formation ***
   11    -854.6834944834881753    -1.50e-05  4.10e-05  5.29e-03  1.20e-04     0.8
   12    -854.6834910593211134     3.42e-06  2.17e-05  2.71e-03  3.04e-04     0.6
   13    -854.6834956648449406    -4.61e-06  6.58e-06  4.18e-04  2.19e-05     0.6
   14    -854.6834955613794591     1.03e-07  3.03e-06  1.91e-04  6.06e-05     0.7
   15    -854.6834956755201347    -1.14e-07  2.29e-06  1.36e-04  2.56e-06     0.6
   16    -854.6834956726074779     2.91e-09  1.66e-06  1.31e-04  4.09e-06     0.6
                 **** Energy Check signals convergence ****

               *****************************************************
               *                     SUCCESS                       *
               *           SCF CONVERGED AFTER  16 CYCLES          *
               *****************************************************

             **** ENERGY FILE WAS UPDATED (m1_00_Vitamin_A-QM3_000-B97-3C-TZ.en.tmp) ****

----------------
TOTAL SCF ENERGY
----------------

Total Energy       :       -854.68349567260748 Eh          -23257.12029 eV

Components:
Nuclear Repulsion  :       1566.79961873805905 Eh           42634.78514 eV
Electronic Energy  :      -2421.48311441066653 Eh          -65891.90542 eV
One Electron Energy:      -4268.03654607667613 Eh         -116139.17882 eV
Two Electron Energy:       1846.55343166600960 Eh           50247.27340 eV

Virial components:
Potential Energy   :      -1706.08621215902667 Eh          -46424.96603 eV
Kinetic Energy     :        851.40271648641919 Eh           23167.84575 eV
Virial Ratio       :          2.00385338115872

DFT components:
N(Alpha)           :       79.000017749024 electrons
N(Beta)            :       79.000017749024 electrons
N(Total)           :      158.000035498048 electrons
E(XC)              :     -127.699901864265 Eh       

---------------
SCF CONVERGENCE
---------------

  Last Energy change         ...   -2.9127e-09  Tolerance :   1.0000e-08
  Last MAX-Density change    ...    1.3127e-04  Tolerance :   1.0000e-07
  Last RMS-Density change    ...    1.6642e-06  Tolerance :   5.0000e-09
  Last DIIS Error            ...    2.4167e-03  Tolerance :   5.0000e-07
  Last Orbital Gradient      ...    4.0859e-06  Tolerance :   1.0000e-05
  Last Orbital Rotation      ...    1.0154e-05  Tolerance :   1.0000e-05


----------------
ORBITAL ENERGIES
----------------

  NO   OCC          E(Eh)            E(eV) 
   0   2.0000     -18.741787      -509.9899 
   1   2.0000      -9.939312      -270.4624 
   2   2.0000      -9.904606      -269.5180 
   3   2.0000      -9.903405      -269.4854 
   4   2.0000      -9.899423      -269.3770 
   5   2.0000      -9.893763      -269.2230 
   6   2.0000      -9.892752      -269.1955 
   7   2.0000      -9.892088      -269.1774 
   8   2.0000      -9.887929      -269.0642 
   9   2.0000      -9.887920      -269.0640 
  10   2.0000      -9.887490      -269.0523 
  11   2.0000      -9.886532      -269.0262 
  12   2.0000      -9.885646      -269.0021 
  13   2.0000      -9.884298      -268.9654 
  14   2.0000      -9.883652      -268.9478 
  15   2.0000      -9.881505      -268.8894 
  16   2.0000      -9.879528      -268.8356 
  17   2.0000      -9.877461      -268.7794 
  18   2.0000      -9.875638      -268.7298 
  19   2.0000      -9.874273      -268.6926 
  20   2.0000      -9.870331      -268.5854 
  21   2.0000      -0.940001       -25.5787 
  22   2.0000      -0.783257       -21.3135 
  23   2.0000      -0.762198       -20.7405 
  24   2.0000      -0.747703       -20.3460 
  25   2.0000      -0.718745       -19.5580 
  26   2.0000      -0.713315       -19.4103 
  27   2.0000      -0.692460       -18.8428 
  28   2.0000      -0.663219       -18.0471 
  29   2.0000      -0.649664       -17.6783 
  30   2.0000      -0.628133       -17.0924 
  31   2.0000      -0.620059       -16.8727 
  32   2.0000      -0.616217       -16.7681 
  33   2.0000      -0.611294       -16.6342 
  34   2.0000      -0.599777       -16.3208 
  35   2.0000      -0.556637       -15.1469 
  36   2.0000      -0.531757       -14.4698 
  37   2.0000      -0.511527       -13.9193 
  38   2.0000      -0.499358       -13.5882 
  39   2.0000      -0.485017       -13.1980 
  40   2.0000      -0.476887       -12.9768 
  41   2.0000      -0.455039       -12.3822 
  42   2.0000      -0.440324       -11.9818 
  43   2.0000      -0.435040       -11.8381 
  44   2.0000      -0.423822       -11.5328 
  45   2.0000      -0.414717       -11.2850 
  46   2.0000      -0.406150       -11.0519 
  47   2.0000      -0.400848       -10.9076 
  48   2.0000      -0.393152       -10.6982 
  49   2.0000      -0.388786       -10.5794 
  50   2.0000      -0.378942       -10.3115 
  51   2.0000      -0.376766       -10.2523 
  52   2.0000      -0.376026       -10.2322 
  53   2.0000      -0.371498       -10.1090 
  54   2.0000      -0.367787       -10.0080 
  55   2.0000      -0.356432        -9.6990 
  56   2.0000      -0.352188        -9.5835 
  57   2.0000      -0.350365        -9.5339 
  58   2.0000      -0.347376        -9.4526 
  59   2.0000      -0.343124        -9.3369 
  60   2.0000      -0.334398        -9.0994 
  61   2.0000      -0.331278        -9.0145 
  62   2.0000      -0.324935        -8.8419 
  63   2.0000      -0.323693        -8.8081 
  64   2.0000      -0.313387        -8.5277 
  65   2.0000      -0.308671        -8.3994 
  66   2.0000      -0.306342        -8.3360 
  67   2.0000      -0.302319        -8.2265 
  68   2.0000      -0.295347        -8.0368 
  69   2.0000      -0.291965        -7.9448 
  70   2.0000      -0.282597        -7.6899 
  71   2.0000      -0.278071        -7.5667 
  72   2.0000      -0.273803        -7.4506 
  73   2.0000      -0.260273        -7.0824 
  74   2.0000      -0.253458        -6.8969 
  75   2.0000      -0.235126        -6.3981 
  76   2.0000      -0.221807        -6.0357 
  77   2.0000      -0.200217        -5.4482 
  78   2.0000      -0.174069        -4.7367 
  79   0.0000      -0.077741        -2.1154 
  80   0.0000      -0.025038        -0.6813 
  81   0.0000       0.001907         0.0519 
  82   0.0000       0.020641         0.5617 
  83   0.0000       0.022370         0.6087 
  84   0.0000       0.030450         0.8286 
  85   0.0000       0.036297         0.9877 
  86   0.0000       0.042992         1.1699 
  87   0.0000       0.044416         1.2086 
  88   0.0000       0.049108         1.3363 
  89   0.0000       0.055354         1.5063 
*Only the first 10 virtual orbitals were printed.

                    ********************************
                    * MULLIKEN POPULATION ANALYSIS *
                    ********************************

-----------------------
MULLIKEN ATOMIC CHARGES
-----------------------
   0 O :   -0.560343
   1 C :    0.153838
   2 C :   -0.317644
   3 C :   -0.348309
   4 C :    0.172697
   5 C :   -0.312923
   6 C :    0.014818
   7 C :   -0.574751
   8 C :   -0.564191
   9 C :   -0.401750
  10 C :   -0.561087
  11 C :   -0.305506
  12 C :    0.263047
  13 C :   -0.568343
  14 C :   -0.210790
  15 C :   -0.115824
  16 C :   -0.289948
  17 C :    0.210965
  18 C :   -0.578402
  19 C :   -0.231968
  20 C :   -0.265995
  21 H :    0.168979
  22 H :    0.174928
  23 H :    0.170623
  24 H :    0.163280
  25 H :    0.164382
  26 H :    0.172773
  27 H :    0.168204
  28 H :    0.185973
  29 H :    0.168685
  30 H :    0.174145
  31 H :    0.181140
  32 H :    0.175499
  33 H :    0.192139
  34 H :    0.165688
  35 H :    0.204183
  36 H :    0.162767
  37 H :    0.152783
  38 H :    0.172742
  39 H :    0.181419
  40 H :    0.178399
  41 H :    0.136850
  42 H :    0.159184
  43 H :    0.135238
  44 H :    0.173098
  45 H :    0.214625
  46 H :    0.174344
  47 H :    0.167380
  48 H :    0.182646
  49 H :    0.153520
  50 H :    0.416795
Sum of atomic charges:   -0.0000000

--------------------------------
MULLIKEN REDUCED ORBITAL CHARGES
--------------------------------
  0 O s       :     3.816146  s :     3.816146
      pz      :     1.511293  p :     4.710107
      px      :     1.816616
      py      :     1.382198
      dz2     :     0.005994  d :     0.034090
      dxz     :     0.004707
      dyz     :    -0.000006
      dx2y2   :     0.011139
      dxy     :     0.012256

  1 C s       :     2.842896  s :     2.842896
      pz      :     0.969211  p :     2.945614
      px      :     1.000039
      py      :     0.976363
      dz2     :     0.012956  d :     0.057653
      dxz     :     0.010354
      dyz     :     0.010446
      dx2y2   :     0.013191
      dxy     :     0.010706

  2 C s       :     3.165326  s :     3.165326
      pz      :     0.990350  p :     3.106447
      px      :     0.979139
      py      :     1.136959
      dz2     :     0.010800  d :     0.045870
      dxz     :     0.009125
      dyz     :     0.008311
      dx2y2   :     0.007994
      dxy     :     0.009641

  3 C s       :     3.204295  s :     3.204295
      pz      :     0.949651  p :     3.098499
      px      :     1.139340
      py      :     1.009509
      dz2     :     0.012031  d :     0.045515
      dxz     :     0.006606
      dyz     :     0.009107
      dx2y2   :     0.011179
      dxy     :     0.006592

  4 C s       :     3.143005  s :     3.143005
      pz      :     0.897012  p :     2.636112
      px      :     0.824222
      py      :     0.914879
      dz2     :     0.011764  d :     0.048186
      dxz     :     0.012471
      dyz     :     0.007788
      dx2y2   :     0.008516
      dxy     :     0.007647

  5 C s       :     3.133924  s :     3.133924
      pz      :     1.098681  p :     3.132626
      px      :     0.971612
      py      :     1.062334
      dz2     :     0.014537  d :     0.046374
      dxz     :     0.005612
      dyz     :     0.004530
      dx2y2   :     0.009423
      dxy     :     0.012271

  6 C s       :     3.174343  s :     3.174343
      pz      :     0.894093  p :     2.763150
      px      :     0.953250
      py      :     0.915807
      dz2     :     0.011697  d :     0.047689
      dxz     :     0.012321
      dyz     :     0.008363
      dx2y2   :     0.007542
      dxy     :     0.007766

  7 C s       :     3.269614  s :     3.269614
      pz      :     1.137069  p :     3.267213
      px      :     1.135277
      py      :     0.994867
      dz2     :     0.008109  d :     0.037923
      dxz     :     0.004196
      dyz     :     0.009388
      dx2y2   :     0.009744
      dxy     :     0.006487

  8 C s       :     3.275992  s :     3.275992
      pz      :     0.989594  p :     3.250153
      px      :     1.142142
      py      :     1.118417
      dz2     :     0.008383  d :     0.038046
      dxz     :     0.009567
      dyz     :     0.006268
      dx2y2   :     0.009758
      dxy     :     0.004071

  9 C s       :     3.312965  s :     3.312965
      pz      :     0.993606  p :     3.047100
      px      :     1.041371
      py      :     1.012124
      dz2     :     0.008716  d :     0.041685
      dxz     :     0.010045
      dyz     :     0.005942
      dx2y2   :     0.008545
      dxy     :     0.008438

 10 C s       :     3.289044  s :     3.289044
      pz      :     1.087917  p :     3.233986
      px      :     1.085258
      py      :     1.060811
      dz2     :     0.005642  d :     0.038058
      dxz     :     0.008577
      dyz     :     0.009417
      dx2y2   :     0.004585
      dxy     :     0.009836

 11 C s       :     3.288596  s :     3.288596
      pz      :     0.931625  p :     2.974989
      px      :     1.038775
      py      :     1.004589
      dz2     :     0.008285  d :     0.041920
      dxz     :     0.010099
      dyz     :     0.006071
      dx2y2   :     0.009003
      dxy     :     0.008462

 12 C s       :     3.174045  s :     3.174045
      pz      :     0.715303  p :     2.514758
      px      :     0.939164
      py      :     0.860291
      dz2     :     0.010278  d :     0.048151
      dxz     :     0.013178
      dyz     :     0.006420
      dx2y2   :     0.009363
      dxy     :     0.008912

 13 C s       :     3.267640  s :     3.267640
      pz      :     1.008614  p :     3.262948
      px      :     1.174803
      py      :     1.079532
      dz2     :     0.009265  d :     0.037755
      dxz     :     0.006469
      dyz     :     0.007929
      dx2y2   :     0.009244
      dxy     :     0.004847

 14 C s       :     3.265110  s :     3.265110
      pz      :     0.885922  p :     2.904382
      px      :     1.038962
      py      :     0.979498
      dz2     :     0.007953  d :     0.041299
      dxz     :     0.010545
      dyz     :     0.005816
      dx2y2   :     0.008710
      dxy     :     0.008274

 15 C s       :     3.092183  s :     3.092183
      pz      :     0.964087  p :     2.982388
      px      :     1.022973
      py      :     0.995327
      dz2     :     0.007951  d :     0.041253
      dxz     :     0.010903
      dyz     :     0.005952
      dx2y2   :     0.008249
      dxy     :     0.008198

 16 C s       :     3.293809  s :     3.293809
      pz      :     0.951606  p :     2.954970
      px      :     1.008119
      py      :     0.995245
      dz2     :     0.007971  d :     0.041169
      dxz     :     0.010968
      dyz     :     0.005866
      dx2y2   :     0.008458
      dxy     :     0.007907

 17 C s       :     3.194444  s :     3.194444
      pz      :     0.800470  p :     2.545537
      px      :     0.860832
      py      :     0.884235
      dz2     :     0.011206  d :     0.049054
      dxz     :     0.012271
      dyz     :     0.006701
      dx2y2   :     0.010378
      dxy     :     0.008498

 18 C s       :     3.275750  s :     3.275750
      pz      :     1.015165  p :     3.265014
      px      :     1.192680
      py      :     1.057169
      dz2     :     0.010233  d :     0.037638
      dxz     :     0.005274
      dyz     :     0.007136
      dx2y2   :     0.010973
      dxy     :     0.004022

 19 C s       :     3.161491  s :     3.161491
      pz      :     1.019006  p :     3.032057
      px      :     0.971545
      py      :     1.041506
      dz2     :     0.007062  d :     0.038420
      dxz     :     0.010550
      dyz     :     0.005618
      dx2y2   :     0.007513
[...]
114:   1504.50   0.001848    9.34  0.000383  ( 0.013518  0.010916  0.009019)
115:   1514.09   0.000906    4.58  0.000187  (-0.007640  0.008840 -0.007080)
116:   1520.92   0.001365    6.90  0.000280  ( 0.012240  0.001575 -0.011306)
117:   1525.23   0.000199    1.01  0.000041  ( 0.002325  0.002323  0.005477)
118:   1595.51   0.005027   25.40  0.000983  (-0.024154  0.008179  0.018245)
119:   1605.43   0.006727   34.00  0.001308  ( 0.034598 -0.009227 -0.005048)
120:   1639.25   0.001901    9.60  0.000362  (-0.004970  0.004009  0.017918)
121:   1647.83   0.002348   11.87  0.000445  (-0.020031  0.006168  0.002342)
122:   1659.32   0.003818   19.29  0.000718  (-0.026793  0.000281 -0.000041)
123:   2941.05   0.011303   57.12  0.001199  ( 0.021807 -0.021082  0.016712)
124:   2966.21   0.026073  131.76  0.002743  ( 0.036206  0.005191 -0.037486)
125:   2973.81   0.007893   39.89  0.000828  ( 0.011016 -0.015239  0.021788)
126:   2974.98   0.008097   40.92  0.000849  (-0.022454  0.011824  0.014331)
127:   2979.21   0.007749   39.16  0.000812  ( 0.001002 -0.007956  0.027339)
128:   2991.50   0.004632   23.41  0.000483  ( 0.001649 -0.021825  0.002027)
129:   2997.14   0.018042   91.18  0.001879  (-0.006539  0.009346  0.041815)
130:   2997.31   0.003489   17.63  0.000363  ( 0.015592 -0.005304 -0.009592)
131:   2998.79   0.008560   43.26  0.000891  ( 0.023513  0.014892  0.010779)
132:   3001.21   0.003497   17.67  0.000364  (-0.001304 -0.009572 -0.016441)
133:   3014.82   0.007841   39.62  0.000812  ( 0.017729 -0.022275  0.001046)
134:   3020.55   0.006520   32.95  0.000674  (-0.014842 -0.020166 -0.006826)
135:   3020.95   0.015741   79.55  0.001626  (-0.033815 -0.021312  0.005329)
136:   3035.39   0.013157   66.49  0.001353  (-0.025697  0.025618 -0.006008)
137:   3043.00   0.003484   17.61  0.000357  (-0.000128 -0.018077  0.005527)
138:   3049.56   0.003441   17.39  0.000352  ( 0.001676  0.017271 -0.007145)
139:   3060.18   0.002552   12.90  0.000260  (-0.007119 -0.014464  0.000618)
140:   3065.20   0.019475   98.42  0.001983  ( 0.037177  0.010159 -0.022300)
141:   3073.92   0.004832   24.42  0.000491  (-0.010511  0.019012  0.004312)
142:   3075.16   0.000813    4.11  0.000082  (-0.005559 -0.002714 -0.006651)
143:   3077.14   0.009949   50.28  0.001009  (-0.026495  0.001336 -0.017469)
144:   3081.02   0.001469    7.42  0.000149  ( 0.004247  0.004116  0.010668)
145:   3091.45   0.008029   40.57  0.000810  ( 0.012519  0.008329  0.024174)
146:   3100.25   0.005143   25.99  0.000518  ( 0.016804  0.008295  0.012905)
147:   3105.12   0.000204    1.03  0.000020  (-0.003787 -0.002419  0.000523)
148:   3109.62   0.002557   12.92  0.000257  ( 0.015217  0.000146  0.005001)
149:   3121.52   0.006028   30.46  0.000603  ( 0.012592  0.003311  0.020812)
150:   3127.14   0.006503   32.86  0.000649  (-0.024679 -0.001734 -0.006070)
151:   3131.73   0.005407   27.32  0.000539  (-0.016008 -0.004986 -0.016052)
152:   3733.10   0.002036   10.29  0.000170  (-0.001539 -0.012652  0.002783)

* The epsilon (eps) is given for a Dirac delta lineshape.
** The dipole moment derivative (T) already includes vibrational overlap.

The first frequency considered to be a vibration is 6
The total number of vibrations considered is 147


--------------------------
THERMOCHEMISTRY AT 298.15K
--------------------------

Temperature         ...   298.15 K
Pressure            ...     1.00 atm
Total Mass          ...   286.46 AMU
Quasi RRHO          ...     True
Cut-Off Frequency   ...     1.00 cm^-1

Throughout the following assumptions are being made:
  (1) The electronic state is orbitally nondegenerate
  (2) There are no thermally accessible electronically excited states
  (3) Hindered rotations indicated by low frequency modes are not
      treated as such but are treated as vibrations and this may
      cause some error
  (4) All equations used are the standard statistical mechanics
      equations for an ideal gas
  (5) All vibrations are strictly harmonic

freq.      17.96  E(vib)   ...       0.57 
freq.      27.75  E(vib)   ...       0.55 
freq.      33.41  E(vib)   ...       0.55 
freq.      48.86  E(vib)   ...       0.53 
freq.      50.32  E(vib)   ...       0.52 
freq.      76.19  E(vib)   ...       0.49 
freq.      80.48  E(vib)   ...       0.48 
freq.      98.88  E(vib)   ...       0.46 
freq.     112.66  E(vib)   ...       0.45 
freq.     136.54  E(vib)   ...       0.42 
freq.     153.61  E(vib)   ...       0.40 
freq.     156.57  E(vib)   ...       0.40 
freq.     172.89  E(vib)   ...       0.38 
freq.     182.86  E(vib)   ...       0.37 
freq.     191.82  E(vib)   ...       0.36 
freq.     226.67  E(vib)   ...       0.33 
freq.     235.37  E(vib)   ...       0.32 
freq.     242.79  E(vib)   ...       0.31 
freq.     257.66  E(vib)   ...       0.30 
freq.     263.06  E(vib)   ...       0.29 
freq.     266.26  E(vib)   ...       0.29 
freq.     281.95  E(vib)   ...       0.28 
freq.     292.02  E(vib)   ...       0.27 
freq.     303.04  E(vib)   ...       0.26 
freq.     320.53  E(vib)   ...       0.25 
freq.     345.11  E(vib)   ...       0.23 
freq.     361.46  E(vib)   ...       0.22 
freq.     373.03  E(vib)   ...       0.21 
freq.     378.48  E(vib)   ...       0.21 
freq.     403.86  E(vib)   ...       0.19 
freq.     427.45  E(vib)   ...       0.18 
freq.     429.82  E(vib)   ...       0.18 
freq.     470.89  E(vib)   ...       0.15 
freq.     483.38  E(vib)   ...       0.15 
freq.     486.29  E(vib)   ...       0.15 
freq.     518.74  E(vib)   ...       0.13 
freq.     535.24  E(vib)   ...       0.13 
freq.     558.64  E(vib)   ...       0.12 
freq.     580.23  E(vib)   ...       0.11 
freq.     606.38  E(vib)   ...       0.10 
freq.     636.10  E(vib)   ...       0.09 
freq.     664.83  E(vib)   ...       0.08 
freq.     733.45  E(vib)   ...       0.06 
freq.     799.05  E(vib)   ...       0.05 
freq.     809.05  E(vib)   ...       0.05 
freq.     811.95  E(vib)   ...       0.05 
freq.     847.94  E(vib)   ...       0.04 
freq.     855.53  E(vib)   ...       0.04 
freq.     867.13  E(vib)   ...       0.04 
freq.     877.65  E(vib)   ...       0.04 
freq.     891.89  E(vib)   ...       0.03 
freq.     898.50  E(vib)   ...       0.03 
freq.     913.22  E(vib)   ...       0.03 
freq.     938.44  E(vib)   ...       0.03 
freq.     951.01  E(vib)   ...       0.03 
freq.     956.74  E(vib)   ...       0.03 
freq.     967.50  E(vib)   ...       0.03 
freq.     978.78  E(vib)   ...       0.03 
freq.     985.48  E(vib)   ...       0.02 
freq.     991.00  E(vib)   ...       0.02 
freq.    1000.93  E(vib)   ...       0.02 
freq.    1023.22  E(vib)   ...       0.02 
freq.    1027.65  E(vib)   ...       0.02 
freq.    1040.32  E(vib)   ...       0.02 
freq.    1049.00  E(vib)   ...       0.02 
freq.    1051.27  E(vib)   ...       0.02 
freq.    1053.75  E(vib)   ...       0.02 
freq.    1063.39  E(vib)   ...       0.02 
freq.    1077.33  E(vib)   ...       0.02 
freq.    1077.48  E(vib)   ...       0.02 
freq.    1143.52  E(vib)   ...       0.01 
freq.    1155.09  E(vib)   ...       0.01 
freq.    1188.17  E(vib)   ...       0.01 
freq.    1198.95  E(vib)   ...       0.01 
freq.    1201.81  E(vib)   ...       0.01 
freq.    1209.63  E(vib)   ...       0.01 
freq.    1223.93  E(vib)   ...       0.01 
freq.    1229.69  E(vib)   ...       0.01 
freq.    1233.47  E(vib)   ...       0.01 
freq.    1266.72  E(vib)   ...       0.01 
freq.    1282.38  E(vib)   ...       0.01 
freq.    1300.85  E(vib)   ...       0.01 
freq.    1310.81  E(vib)   ...       0.01 
freq.    1331.33  E(vib)   ...       0.01 
freq.    1341.90  E(vib)   ...       0.01 
freq.    1343.91  E(vib)   ...       0.01 
freq.    1350.55  E(vib)   ...       0.01 
freq.    1364.55  E(vib)   ...       0.01 
freq.    1377.17  E(vib)   ...       0.01 
freq.    1382.57  E(vib)   ...       0.01 
freq.    1383.76  E(vib)   ...       0.00 
freq.    1392.23  E(vib)   ...       0.00 
freq.    1397.92  E(vib)   ...       0.00 
freq.    1408.56  E(vib)   ...       0.00 
freq.    1412.27  E(vib)   ...       0.00 
freq.    1415.96  E(vib)   ...       0.00 
freq.    1419.98  E(vib)   ...       0.00 
freq.    1426.46  E(vib)   ...       0.00 
freq.    1472.36  E(vib)   ...       0.00 
freq.    1484.55  E(vib)   ...       0.00 
freq.    1488.79  E(vib)   ...       0.00 
freq.    1490.99  E(vib)   ...       0.00 
freq.    1491.60  E(vib)   ...       0.00 
freq.    1492.39  E(vib)   ...       0.00 
freq.    1496.01  E(vib)   ...       0.00 
freq.    1497.96  E(vib)   ...       0.00 
freq.    1498.96  E(vib)   ...       0.00 
freq.    1501.66  E(vib)   ...       0.00 
freq.    1504.50  E(vib)   ...       0.00 
freq.    1514.09  E(vib)   ...       0.00 
freq.    1520.92  E(vib)   ...       0.00 
freq.    1525.23  E(vib)   ...       0.00 
freq.    1595.51  E(vib)   ...       0.00 
freq.    1605.43  E(vib)   ...       0.00 
freq.    1639.25  E(vib)   ...       0.00 
freq.    1647.83  E(vib)   ...       0.00 
freq.    1659.32  E(vib)   ...       0.00 
freq.    2941.05  E(vib)   ...       0.00 
freq.    2966.21  E(vib)   ...       0.00 
freq.    2973.81  E(vib)   ...       0.00 
freq.    2974.98  E(vib)   ...       0.00 
freq.    2979.21  E(vib)   ...       0.00 
freq.    2991.50  E(vib)   ...       0.00 
freq.    2997.14  E(vib)   ...       0.00 
freq.    2997.31  E(vib)   ...       0.00 
freq.    2998.79  E(vib)   ...       0.00 
freq.    3001.21  E(vib)   ...       0.00 
freq.    3014.82  E(vib)   ...       0.00 
freq.    3020.55  E(vib)   ...       0.00 
freq.    3020.95  E(vib)   ...       0.00 
freq.    3035.39  E(vib)   ...       0.00 
freq.    3043.00  E(vib)   ...       0.00 
freq.    3049.56  E(vib)   ...       0.00 
freq.    3060.18  E(vib)   ...       0.00 
freq.    3065.20  E(vib)   ...       0.00 
freq.    3073.92  E(vib)   ...       0.00 
freq.    3075.16  E(vib)   ...       0.00 
freq.    3077.14  E(vib)   ...       0.00 
freq.    3081.02  E(vib)   ...       0.00 
freq.    3091.45  E(vib)   ...       0.00 
freq.    3100.25  E(vib)   ...       0.00 
freq.    3105.12  E(vib)   ...       0.00 
freq.    3109.62  E(vib)   ...       0.00 
freq.    3121.52  E(vib)   ...       0.00 
freq.    3127.14  E(vib)   ...       0.00 
freq.    3131.73  E(vib)   ...       0.00 
freq.    3733.10  E(vib)   ...       0.00 

------------
INNER ENERGY
------------

The inner energy is: U= E(el) + E(ZPE) + E(vib) + E(rot) + E(trans)
    E(el)   - is the total energy from the electronic structure calculation
              = E(kin-el) + E(nuc-el) + E(el-el) + E(nuc-nuc)
    E(ZPE)  - the the zero temperature vibrational energy from the frequency calculation
    E(vib)  - the the finite temperature correction to E(ZPE) due to population
              of excited vibrational states
    E(rot)  - is the rotational thermal energy
    E(trans)- is the translational thermal energy

Summary of contributions to the inner energy U:
Electronic energy                ...   -854.95805422 Eh
Zero point energy                ...      0.44836215 Eh     281.35 kcal/mol
Thermal vibrational correction   ...      0.02155790 Eh      13.53 kcal/mol
Thermal rotational correction    ...      0.00141627 Eh       0.89 kcal/mol
Thermal translational correction ...      0.00141627 Eh       0.89 kcal/mol
-----------------------------------------------------------------------
Total thermal energy                   -854.48530163 Eh


Summary of corrections to the electronic energy:
(perhaps to be used in another calculation)
Total thermal correction                  0.02439045 Eh      15.31 kcal/mol
Non-thermal (ZPE) correction              0.44836215 Eh     281.35 kcal/mol
-----------------------------------------------------------------------
Total correction                          0.47275260 Eh     296.66 kcal/mol


--------
ENTHALPY
--------

The enthalpy is H = U + kB*T
                kB is Boltzmann's constant
Total thermal energy              ...   -854.48530163 Eh 
Thermal Enthalpy correction       ...      0.00094421 Eh       0.59 kcal/mol
-----------------------------------------------------------------------
Total Enthalpy                    ...   -854.48435742 Eh


Note: Only C1 symmetry has been detected, increase convergence thresholds 
      if your molecule has a higher symmetry. Symmetry factor of 1.0 is   
      used for the rotational entropy correction. 
 

Note: Rotational entropy computed according to Herzberg 
Infrared and Raman Spectra, Chapter V,1, Van Nostrand Reinhold, 1945 
Point Group:  C1, Symmetry Number:   1  
Rotational constants in cm-1:     0.027086     0.002635     0.002538 

Vibrational entropy computed according to the QRRHO of S. Grimme
Chem.Eur.J. 2012 18 9955 using a reference frequency of 100.0 cm-1


-------
ENTROPY
-------

The entropy contributions are T*S = T*(S(el)+S(vib)+S(rot)+S(trans))
     S(el)   - electronic entropy
     S(vib)  - vibrational entropy
     S(rot)  - rotational entropy
     S(trans)- translational entropy
The entropies will be listed as multiplied by the temperature to get
units of energy

Electronic entropy                ...      0.00000000 Eh      0.00 kcal/mol
Vibrational entropy               ...      0.03843983 Eh     24.12 kcal/mol
Rotational entropy                ...      0.01683951 Eh     10.57 kcal/mol
Translational entropy             ...      0.02036176 Eh     12.78 kcal/mol
-----------------------------------------------------------------------
Final entropy term                ...      0.07564110 Eh     47.47 kcal/mol

In case the symmetry of your molecule has not been determined correctly
or in case you have a reason to use a different symmetry number we print 
out the resulting rotational entropy values for sn=1,12:

 non-linear molecules -----------------------------------
|  sn= 1 | S(rot)=       0.01683951 Eh     10.57 kcal/mol|
|  sn= 2 | S(rot)=       0.01618505 Eh     10.16 kcal/mol|
|  sn= 3 | S(rot)=       0.01580222 Eh      9.92 kcal/mol|
|  sn= 4 | S(rot)=       0.01553060 Eh      9.75 kcal/mol|
|  sn= 5 | S(rot)=       0.01531991 Eh      9.61 kcal/mol|
|  sn= 6 | S(rot)=       0.01514777 Eh      9.51 kcal/mol|
|  sn= 7 | S(rot)=       0.01500222 Eh      9.41 kcal/mol|
|  sn= 8 | S(rot)=       0.01487614 Eh      9.33 kcal/mol|
|  sn= 9 | S(rot)=       0.01476493 Eh      9.27 kcal/mol|
|  sn=10 | S(rot)=       0.01466545 Eh      9.20 kcal/mol|
|  sn=11 | S(rot)=       0.01457546 Eh      9.15 kcal/mol|
|  sn=12 | S(rot)=       0.01449331 Eh      9.09 kcal/mol|
 linear molecules ---------------------------------------
|  Dinfh | S(rot)=       0.01096865 Eh      6.88 kcal/mol|
|  Cinfv | S(rot)=       0.01162311 Eh      7.29 kcal/mol|
 --------------------------------------------------------


-------------------
GIBBS FREE ENERGY
-------------------

The Gibbs free energy is G = H - T*S

Total enthalpy                    ...   -854.48435742 Eh 
Total entropy correction          ...     -0.07564110 Eh    -47.47 kcal/mol
-----------------------------------------------------------------------
Final Gibbs free energy         ...   -854.55999852 Eh

For completeness - the Gibbs free energy minus the electronic energy
G-E(el)                           ...      0.39805570 Eh    249.78 kcal/mol


Maximum memory used throughout the entire PROP-calculation: 135.0 MB

--------------------------------
SUGGESTED CITATIONS FOR THIS RUN
--------------------------------

Below you find a list of papers that are relevant to this ORCA run
We neither can nor want to force you to cite these papers, but we appreciate if you do
You receive ORCA, which is the product of decades of hard work by many enthusiastic individuals, for free
The only thing we kindly ask in return is that you cite our papers,
We deeply appreciate it, if you show your appreciation for ORCA by not just citing the generic ORCA reference.

Please note that relegating all ORCA citations to the supporting information does *not* help us.
SI sections are not indexed - citations you put there will not count into any citation statistics
But we need these citations in order to attract the funding resources that allow us to do what we are doing

Therefore, if you are a happy ORCA user, please consider citing a few of the papers listed below in the main body of your paper

In addition to the list printed below, the program has created the file m1_00_Vitamin_A-QM3_000-B97-3C-TZ.bibtex that contains the list in bibtex format
You can import this file easily into all common literature databanks and citation aid programs


List of essential papers. We consider these as the minimum necessary citations

  1. Neese,F.
     Software update: the ORCA program system, version 5.0
     WIRES Comput. Molec. Sci., 2022 12(1)e1606
     doi.org/10.1002/wcms.1606

List of papers to cite with high priority. The work reported in these papers was absolutely
necessary for this run to complete.
Our perspective: the developers of density functionals and basis sets usually get cited in chemistry papers
Good! But without the algorithms to do something with them, the functionals or basis sets would not do anything.
Hence, in our opinion, the algorithm design and method developments papers are equally worthy of getting cited

  1. Neese,F.
     An improvement of the resolution of the identity approximation for the formation of the Coulomb matrix
     J. Comp. Chem., 2003 24(14)1740-1747
     doi.org/10.1002/jcc.10318
  2. Bykov,D.; Petrenko,T.; Izsak,R.; Kossmann,S.; Becker,U.; Valeev,E.; Neese,F.
     Efficient implementation of the analytic second derivatives of Hartree-Fock and hybrid DFT energies: a detailed analysis of different approximations
     Molec. Phys., 2015 113 1961-1977
     doi.org/10.1080/00268976.2015.1025114
  3. Neese,F.
     The SHARK Integral Generation and Digestion System
     J. Comp. Chem., 2022  1-16
     doi.org/10.1002/jcc.26942
  4. Grimme,S.; Antony,J.; Ehrlich,S.; Krieg,H.
     A consistent and accurate ab initio parametrization of density functional dispersion correction (DFT-D) for the 94 elements H-Pu
     J. Chem. Phys., 2010 132 154104
     doi.org/10.1063/1.3382344
  5. Grimme,S.; Ehrlich,S.; Goerigk,L.
     Effect of the damping function in dispersion corrected density functional theory
     J. Comput. Chem., 2011 32(7)1456-1465
     doi.org/10.1002/jcc.21759

List of suggested additional citations. These are papers that are important in the 'surrounding' of 
of this run, or papers that preceded the highly important papers. If you like your results we are grateful for a citation.

  1. Neese,F.
     The ORCA program system
     WIRES Comput. Molec. Sci., 2012 2(1)73-78
     doi.org/10.1002/wcms.81
  2. Neese,F.
     Software update: the ORCA program system, version 4.0
     WIRES Comput. Molec. Sci., 2018 8(1)1-6
     doi.org/10.1002/wcms.1327
  3. Neese,F.; Wennmohs,F.; Becker,U.; Riplinger,C.
     The ORCA quantum chemistry program package
     J. Chem. Phys., 2020 152 Art. No. L224108
     doi.org/10.1063/5.0004608

List of optional additional citations

  1. Neese,F.
     Approximate second-order SCF convergence for spin unrestricted wavefunctions
     Chem. Phys. Lett., 2000 325(1-3)93-98
     doi.org/10.1016/s0009-2614(00)00662-x

Timings for individual modules:

Sum of individual times          ...      553.998 sec (=   9.233 min)
Startup calculation              ...       54.469 sec (=   0.908 min)   9.8 %
SCF iterations                   ...      107.989 sec (=   1.800 min)  19.5 %
Property integrals               ...      117.695 sec (=   1.962 min)  21.2 %
SCF Response                     ...      155.188 sec (=   2.586 min)  28.0 %
Property calculations            ...       52.384 sec (=   0.873 min)   9.5 %
SCF Gradient evaluation          ...       66.101 sec (=   1.102 min)  11.9 %
Geometry relaxation              ...        0.172 sec (=   0.003 min)   0.0 %
                             ****ORCA TERMINATED NORMALLY****
TOTAL RUN TIME: 0 days 0 hours 9 minutes 16 seconds 781 msec
