
                                 *****************
                                 * O   R   C   A *
                                 *****************

                                            #,                                       
                                            ###                                      
                                            ####                                     
                                            #####                                    
                                            ######                                   
                                           ########,                                 
                                     ,,################,,,,,                         
                               ,,#################################,,                 
                          ,,##########################################,,             
                       ,#########################################, ''#####,          
                    ,#############################################,,   '####,        
                  ,##################################################,,,,####,       
                ,###########''''           ''''###############################       
              ,#####''   ,,,,##########,,,,          '''####'''          '####       
            ,##' ,,,,###########################,,,                        '##       
           ' ,,###''''                  '''############,,,                           
         ,,##''                                '''############,,,,        ,,,,,,###''
      ,#''                                            '''#######################'''  
     '                                                          ''''####''''         
             ,#######,   #######,   ,#######,      ##                                
            ,#'     '#,  ##    ##  ,#'     '#,    #''#        ,####,   ,####,        
            ##       ##  ##   ,#'  ##            #'  '#       #'       #'  '#        
            ##       ##  #######   ##           ,######,      #####,   #    #        
            '#,     ,#'  ##    ##  '#,     ,#' ,#      #,     #,   #   #,  ,#        
             '#######'   ##     ##  '#######'  #'      '#     '####' # '####'        



                #########################################################
                #                        -***-                          #
                #          Department of theory and spectroscopy        #
                #                                                       #
                #                      Frank Neese                      #
                #                                                       #
                #     Directorship, Architecture, Infrastructure        #
                #                    SHARK, DRIVERS                     #
                #        Core code/Algorithms in most modules           #
                #                                                       #
                #        Max Planck Institute fuer Kohlenforschung      #
                #                Kaiser Wilhelm Platz 1                 #
                #                 D-45470 Muelheim/Ruhr                 #
                #                      Germany                          #
                #                                                       #
                #                  All rights reserved                  #
                #                        -***-                          #
                #########################################################


                         Program Version 6.0.1  -  RELEASE   -


 With contributions from (in alphabetic order):
[Max-Planck-Institut fuer Kohlenforschung]                               
  Daniel Aravena         : Magnetic Suceptibility                        
  Michael Atanasov       : Ab Initio Ligand Field Theory (pilot matlab implementation)
  Alexander A. Auer      : GIAO ZORA, VPT2 properties, NMR spectrum      
  Ute Becker             : All parallelization in ORCA, NUMFREQ, NUMCALC 
  Giovanni Bistoni       : ED, misc. LED, open-shell LED, HFLD           
  Martin Brehm           : Molecular dynamics                            
  Dmytro Bykov           : pre 5.0 version of the SCF Hessian            
  Marcos Casanova-Páez   : Triplet and SCS-CIS(D). UHF-(DLPNO)-IP/EA/STEOM-CCSD. UHF-CVS-IP/STEOM-CCSD   
  Vijay G. Chilkuri      : MRCI spin determinant printing, contributions to CSF-ICE 
  Pauline Colinet        : FMM embedding                                 
  Dipayan Datta          : RHF DLPNO-CCSD density                        
  Achintya Kumar Dutta   : EOM-CC, STEOM-CC                              
  Nicolas Foglia         : Exact transition moments, OPA infrastructure, MCD improvements    
  Dmitry Ganyushin       : Spin-Orbit,Spin-Spin,Magnetic field MRCI      
  Miquel Garcia-Rates    : C-PCM and meta-GGA Hessian, CCSD/C-PCM, Gaussian charge scheme 
  Tiago L. C. Gouveia    : GS-ROHF, GS-ROCIS                             
  Yang Guo               : DLPNO-NEVPT2, F12-NEVPT2, CIM, IAO-localization        
  Andreas Hansen         : Spin unrestricted coupled pair/coupled cluster methods 
  Ingolf Harden          : AUTO-CI MPn and infrastructure                
  Benjamin Helmich-Paris : MC-RPA, TRAH-(SCF,CASSCF), AVAS, COSX integrals, SCF dyn. polar. 
  Lee Huntington         : MR-EOM, pCC                                   
  Robert Izsak           : Overlap fitted RIJCOSX, COSX-SCS-MP3, EOM     
  Riya Kayal             : Wick's Theorem for AUTO-CI, AUTO-CI UHF-CCSDT 
  Emily Kempfer          : AUTO-CI, RHF CISDT and CCSDT                  
  Christian Kollmar      : KDIIS, OOCD, Brueckner-CCSD(T), CCSD density, CASPT2, CASPT2-K, improved NEVPT2 
  Axel Koslowski         : Symmetry handling                             
  Simone Kossmann        : meta-GGA functionals, TD-DFT gradient, OOMP2, (MP2 Hessian; deprecated post 5.0) 
  Lucas Lang             : DCDCAS                                        
  Marvin Lechner         : AUTO-CI (C++ implementation), FIC-MRCC        
  Spencer Leger          : CASSCF response                               
  Dagmar Lenk            : GEPOL surface, SMD, ORCA-2-JSON               
  Dimitrios Liakos       : Extrapolation schemes; Compound Job, initial MDCI parallelization 
  Dimitrios Manganas     : Further ROCIS development; embedding schemes. LFT, Crystal Embedding 
  Dimitrios Pantazis     : SARC Basis sets                               
  Anastasios Papadopoulos: AUTO-CI, single reference methods and gradients 
  Taras Petrenko         : pre 6.0 DFT Hessian and TD-DFT gradient, (ASA, deprecated), ECA, 1-Electron XAS/XES, NRVS 
  Peter Pinski           : DLPNO-MP2, DLPNO-MP2 Gradient                 
  Christoph Reimann      : Effective Core Potentials                     
  Marius Retegan         : Local ZFS, SOC                                
  Christoph Riplinger    : Optimizer, TS searches, QM/MM, DLPNO-CCSD(T), (RO)-DLPNO pert. Triples 
  Michael Roemelt        : Original ROCIS implementation                 
  Masaaki Saitow         : Open-shell DLPNO-CCSD energy and density      
  Barbara Sandhoefer     : DKH picture change effects                    
  Kantharuban Sivalingam : CASSCF convergence/infrastructure, NEVPT2 and variants, FIC-MRCI 
  Bernardo de Souza      : ESD, SOC TD-DFT                               
  Georgi L. Stoychev     : AutoAux, RI-MP2 NMR, DLPNO-MP2 response, X2C  
  Van Anh Tran           : RI-MP2 g-tensors                              
  Willem Van den Heuvel  : Paramagnetic NMR                              
  Zikuan Wang            : NOTCH, Electric field optimization            
  Frank Wennmohs         : Technical directorship and infrastructure     
  Hang Xu                : AUTO-CI-Response properties                   
                                                                         
[FACCTs GmbH]                                                            
  Markus Bursch, Miquel Garcia-Rates, Christoph Riplinger, Bernardo de Souza, Georgi L. Stoychev 
                                                                 
  APM, Basis sets (HGBS, AHGBS, def-TZVP (Ac-Lr), def2-XVPD (La-Lu)), CI-OPT, improved COSX, DLPNO-Multilevel,           
  DOCKER, DRACO, updates on ESD, GOAT, IRC, LR-CPCM, MBIS, meta-GGA TD-DFT gradient, ML-optimized integration grids, 
  MM, NACMEs, nearIR, NEB, NEB-TS, NL-DFT gradient (VV10), 2- and 3-layer-ONIOM, interface openCOSMO-RS, QMMM,   
  Crystal-QMMM, SF, symmetry and pop. for TD-DFT, r2SCAN hybrids, SOLVATOR                                   
                                                                         
[Other institutions]                                                     
  V. Asgeirsson          : NEB                                           
  Christoph Bannwarth    : sTDA-DFT, sTD-DFT, PBEh-3c, B97-3c, D3        
  Sebastian Ehlert       : rSCAN, r2SCAN, r2SCAN-3c, D4, dhf basis sets  
  Marvin Friede          : D4 for Fr, Ra, Ac-Lr                          
  Lars Goerigk           : TD-DFT with DH, B97 family of functionals     
  Stefan Grimme          : VdW corrections, initial TS optimization, DFT functionals, gCP, sTDA/sTD-DF 
  Waldemar Hujo          : DFT-NL                                        
  H. Jonsson             : NEB                                           
  Holger Kruse           : gCP                                           
  Marcel Mueller         : wB97X-3c, vDZP basis set                      
  Hagen Neugebauer       : wr2SCAN                                       
  Tobias Risthaus        : range-separated hybrid DFT                    
  Lukas Wittmann         : regularized MP2, r2SCAN double-hybrids, wr2SCAN        
                                                                         
We gratefully acknowledge several colleagues who have allowed us to      
interface, adapt or use parts of their codes:                            
  Ed Valeev, F. Pavosevic, A. Kumar             : LibInt (2-el integral package), F12 methods 
  Garnet Chan, S. Sharma, J. Yang, R. Olivares  : DMRG                   
  Ulf Ekstrom                                   : XCFun DFT Library      
  Mihaly Kallay                                 : mrcc  (arbitrary order and MRCC methods)
  Frank Weinhold                                : gennbo (NPA and NBO analysis)           
  Simon Mueller                                 : openCOSMO-RS                            
  Christopher J. Cramer and Donald G. Truhlar   : smd solvation model                     
  S Lehtola, MJT Oliveira, MAL Marques          : LibXC Library                           
  Liviu Ungur et al                             : ANISO software                          


 Your calculation uses the libint2 library for the computation of 2-el integrals
 For citations please refer to: http://libint.valeyev.net

 Your ORCA version has been built with support for libXC version: 6.2.2
 For citations please refer to: https://libxc.gitlab.io

 This ORCA versions uses:
   CBLAS   interface :  Fast vector & matrix operations
   LAPACKE interface :  Fast linear algebra routines
   SCALAPACK package :  Parallel linear algebra routines
   Shared memory     :  Shared parallel matrices
   BLAS/LAPACK       :  OpenBLAS 0.3.27  USE64BITINT DYNAMIC_ARCH NO_AFFINITY Zen SINGLE_THREADED
        Core in use  :  Zen
   Copyright (c) 2011-2014, The OpenBLAS Project


NOTE: MaxCore=6000 MB was set to SCF,MP2,MDCI,CIPSI,MRCI and CIS
      => If you want to overwrite this, your respective input block should be placed after the MaxCore statement
Your calculation utilizes the atom-pairwise dispersion correction
with the Becke-Johnson damping scheme (D3BJ)


Your calculation employs the composite approach B97-3c by Grimme and coworkers.
For the correct reference, please check the publication list of the Grimme group:
http://www.thch.uni-bonn.de/tc/index.php?section=publikationen&subsection=grimme#2017
   

XCFun DFT library Copyright 2009-2010 Ulf Ekstrom and contributors.
See http://admol.org/xcfun for more information.
This is free software; see the source code for copying conditions.
There is ABSOLUTELY NO WARRANTY; not even for MERCHANTABILITY or FITNESS FOR A PARTICULAR PURPOSE.
For details see the documentation.
Scientific users of this library should cite U. Ekstrom, L. Visscher, R. Bast, A. J. Thorvaldsen and K. Ruud;
J.Chem.Theor.Comp. 2010, DOI: 10.1021/ct100117s
XCFun Version 0.99 

================================================================================

----- Orbital basis set information -----
Your calculation utilizes the basis: def2-mTZVP
----- AuxJ basis set information -----
Your calculation utilizes the basis: def2-mTZVP/J
================================================================================
                                        WARNINGS
                       Please study these warnings very carefully!
================================================================================


WARNING: Geometry Optimization
  ===> : Switching off AutoStart
         For restart on a previous wavefunction, please use MOREAD

================================================================================
                                       INPUT FILE
================================================================================
NAME = m1_00_Vitamin_A-QM3_002-B97-3C-TZ.inp
|  1> %pal nprocs 16 end
|  2> %MaxCore 6000
|  3> # put your comments here
|  4> ! B97-3C  OPT  FREQ DEFGRID3 NOTRAH
|  5> %scf MaxIter 800 end
|  6> %output
|  7> Print [P_Hirshfeld] 1
|  8> end
|  9> %geom
| 10> MaxIter 3000
| 11>  TolE 1e-6 #TolE 5e-6 Energy change (a.u.)
| 12>  TolRMSG 3e-5 #TolRMSG 1e-4 RMS gradient (a.u.)
| 13>  TolMaxG 1e-4 #TolMaxG 3e-3 Max. element of gradient (a.u.)
| 14>  TolRMSD 2e-3 #TolRMSD 2e-3 RMS displacement (a.u.)
| 15>  TolMaxD 4e-3 #TolMaxD 4e-3 Max. displacement (a.u.)
| 16> end
| 17> * xyz 0 1
| 18>  O       8.37622726      -0.03769525       1.67285026
| 19>  C      -3.96690793      -0.14186781      -1.32256592
| 20>  C      -5.40082893       0.35062521      -1.15106447
| 21>  C      -5.47265161       1.66089048      -0.40581029
| 22>  C      -3.18356632       0.00577455      -0.02495993
| 23>  C      -4.91866812       1.48023777       0.98868548
| 24>  C      -3.61036196       0.73713725       1.00759727
| 25>  C      -3.25333408       0.66943351      -2.40710059
| 26>  C      -4.01318551      -1.61093614      -1.75731950
| 27>  C      -1.87049436      -0.69539127       0.00602788
| 28>  C      -2.85119425       0.86890605       2.30504842
| 29>  C      -0.69950874      -0.07299985       0.09536878
| 30>  C       0.63505804      -0.72240718       0.11379948
| 31>  C       0.67375300      -2.22396536       0.02986539
| 32>  C       1.72704299       0.05401017       0.20462733
| 33>  C       3.12854131      -0.38762990       0.23881584
| 34>  C       4.15730248       0.45865430       0.33319842
| 35>  C       5.58976539       0.07801457       0.37543151
| 36>  C       5.93099382      -1.38279085       0.27483915
| 37>  C       6.51731925       1.03371168       0.49721002
| 38>  C       8.00607744       0.78816808       0.57613050
| 39>  H      -5.97454615      -0.39360862      -0.59512846
| 40>  H      -5.87983583       0.43497194      -2.13013015
| 41>  H      -6.50606919       2.02542718      -0.36074997
| 42>  H      -4.89706889       2.42393245      -0.93394962
| 43>  H      -5.63610907       0.92912364       1.61034589
| 44>  H      -4.78596675       2.45030646       1.48169042
| 45>  H      -3.21329351       1.72716956      -2.15742747
| 46>  H      -2.23015808       0.32859229      -2.54591745
| 47>  H      -3.76141033       0.57917367      -3.36716647
| 48>  H      -4.65540694      -1.73047308      -2.63012159
| 49>  H      -3.02951877      -1.98725574      -2.02792999
| 50>  H      -4.40910650      -2.25135391      -0.97002444
| 51>  H      -1.89354453      -1.77456674      -0.08083286
| 52>  H      -2.40219150       1.86327135       2.38963953
| 53>  H      -2.06004969       0.13238157       2.40142887
| 54>  H      -3.53381859       0.75481838       3.15079171
| 55>  H      -0.69393084       1.00940733       0.15933633
| 56>  H       1.68941670      -2.60814087       0.05408595
| 57>  H       0.12300001      -2.66893883       0.86133459
| 58>  H       0.20308523      -2.56885259      -0.89333431
| 59>  H       1.58604674       1.12876123       0.26049535
| 60>  H       3.31950490      -1.45012243       0.18525106
| 61>  H       3.94885030       1.52251376       0.38787815
| 62>  H       5.49838487      -1.93464980       1.11102373
| 63>  H       7.00315339      -1.54079895       0.28640098
| 64>  H       5.52005981      -1.80560973      -0.64439447
| 65>  H       6.19193869       2.06850235       0.55701202
| 66>  H       8.52544808       1.75688736       0.63148144
| 67>  H       8.36672103       0.27740388      -0.32541791
| 68>  H       8.08503624       0.39184685       2.48365414
| 69> *
| 70> 
| 71> 
| 72> 
| 73> 
| 74>                          ****END OF INPUT****
================================================================================

                       *****************************
                       * Geometry Optimization Run *
                       *****************************

Geometry optimization settings:
Update method            Update   .... BFGS
Choice of coordinates    CoordSys .... (2022) Redundant Internals
Initial Hessian          InHess   .... Almloef's Model
Max. no of cycles        MaxIter  .... 3000

Convergence Tolerances:
Energy Change            TolE     ....  1.0000e-06 Eh
Max. Gradient            TolMAXG  ....  1.0000e-04 Eh/bohr
RMS Gradient             TolRMSG  ....  3.0000e-05 Eh/bohr
Max. Displacement        TolMAXD  ....  4.0000e-03 bohr
RMS Displacement         TolRMSD  ....  2.0000e-03 bohr
Strict Convergence                .... False

------------------------------------------------------------------------------
                        ORCA OPTIMIZATION COORDINATE SETUP
------------------------------------------------------------------------------

The optimization will be done in redundant internal coordinates (2022)
Making redundant internal coordinates   ...  (2022 redundants) done
Evaluating the initial hessian          ...  (Almloef) done
Evaluating the coordinates              ...  done
Calculating the B-matrix                .... done
Calculating the G-matrix                .... done
Diagonalizing the G-matrix              .... done
Small eigenvalue found = 9.954e-04
Small eigenvalue found = 3.151e-03
Small eigenvalue found = 6.119e-03
Small eigenvalue found = 6.881e-03
Small eigenvalue found = 1.195e-02
Small eigenvalue found = 1.654e-02
Small eigenvalue found = 2.271e-02
Small eigenvalue found = 2.732e-02
Small eigenvalue found = 2.893e-02
The first mode is                       ....   94
The number of degrees of freedom        ....  147

    -----------------------------------------------------------------
                    Redundant Internal Coordinates


    -----------------------------------------------------------------
         Definition                    Initial Value    Approx d2E/dq
    -----------------------------------------------------------------
      1. B(C   2,C   1)                  1.5258         0.379372   
      2. B(C   3,C   2)                  1.5091         0.403400   
      3. B(C   4,C   1)                  1.5229         0.383456   
      4. B(C   5,C   3)                  1.5113         0.400080   
      5. B(C   6,C   5)                  1.5047         0.409911   
      6. B(C   6,C   4)                  1.3354         0.763647   
      7. B(C   7,C   1)                  1.5309         0.372360   
      8. B(C   8,C   1)                  1.5327         0.369823   
      9. B(C   9,C   4)                  1.4889         0.434498   
     10. B(C  10,C   6)                  1.5090         0.403537   
     11. B(C  11,C   9)                  1.3291         0.781391   
     12. B(C  12,C  11)                  1.4843         0.441869   
     13. B(C  13,C  12)                  1.5044         0.410413   
     14. B(C  14,C  12)                  1.3429         0.742694   
     15. B(C  15,C  14)                  1.4698         0.465981   
     16. B(C  16,C  15)                  1.3355         0.763401   
     17. B(C  17,C  16)                  1.4828         0.444348   
     18. B(C  18,C  17)                  1.5035         0.411774   
     19. B(C  19,C  17)                  1.3374         0.758081   
     20. B(C  20,C  19)                  1.5109         0.400679   
     21. B(C  20,O   0)                  1.4219         0.497680   
     22. B(H  21,C   2)                  1.0918         0.357683   
     23. B(H  22,C   2)                  1.0932         0.355864   
     24. B(H  23,C   3)                  1.0968         0.351275   
     25. B(H  24,C   3)                  1.0920         0.357467   
     26. B(H  25,C   5)                  1.0977         0.350077   
     27. B(H  26,C   5)                  1.0962         0.351966   
     28. B(H  27,C   7)                  1.0875         0.363368   
     29. B(H  28,C   7)                  1.0874         0.363622   
     30. B(H  29,C   7)                  1.0900         0.360152   
     31. B(H  30,C   8)                  1.0902         0.359845   
     32. B(H  31,C   8)                  1.0874         0.363551   
     33. B(H  32,C   8)                  1.0894         0.360938   
     34. B(H  33,C   9)                  1.0829         0.369601   
     35. B(H  34,C  10)                  1.0943         0.354439   
     36. B(H  35,C  10)                  1.0852         0.366501   
     37. B(H  36,C  10)                  1.0928         0.356378   
     38. B(H  37,C  11)                  1.0843         0.367706   
     39. B(H  38,C  13)                  1.0862         0.365212   
     40. B(H  39,C  13)                  1.0921         0.357339   
     41. B(H  40,C  13)                  1.0921         0.357278   
     42. B(H  41,C  14)                  1.0854         0.366238   
     43. B(H  42,C  15)                  1.0808         0.372416   
     44. B(H  43,C  16)                  1.0855         0.366146   
     45. B(H  44,C  18)                  1.0913         0.358404   
     46. B(H  45,C  18)                  1.0838         0.368393   
     47. B(H  46,C  18)                  1.0921         0.357362   
     48. B(H  47,C  19)                  1.0864         0.364909   
     49. B(H  48,C  20)                  1.1006         0.346401   
     50. B(H  49,C  20)                  1.0971         0.350767   
     51. B(H  50,O   0)                  0.9627         0.514912   
     52. A(C  20,O   0,H  50)          108.1634         0.355886   
     53. A(C   2,C   1,C   7)          110.2807         0.364106   
     54. A(C   2,C   1,C   4)          110.8753         0.365941   
     55. A(C   7,C   1,C   8)          108.7275         0.362524   
     56. A(C   4,C   1,C   7)          108.2097         0.364774   
     57. A(C   4,C   1,C   8)          110.4955         0.364348   
     58. A(C   2,C   1,C   8)          108.2324         0.363681   
     59. A(C   1,C   2,H  21)          109.3315         0.324781   
     60. A(H  21,C   2,H  22)          106.1625         0.289993   
     61. A(C   1,C   2,H  22)          109.6342         0.324509   
     62. A(C   1,C   2,C   3)          112.3637         0.369137   
     63. A(C   3,C   2,H  22)          110.7587         0.327805   
     64. A(C   3,C   2,H  21)          108.3830         0.328081   
     65. A(C   2,C   3,C   5)          109.5382         0.372528   
     66. A(C   5,C   3,H  23)          110.3164         0.326660   
     67. A(H  23,C   3,H  24)          106.5153         0.289376   
     68. A(C   5,C   3,H  24)          109.6681         0.327601   
     69. A(C   2,C   3,H  24)          110.0454         0.328048   
     70. A(C   2,C   3,H  23)          110.7151         0.327105   
     71. A(C   1,C   4,C   9)          115.1961         0.374577   
     72. A(C   6,C   4,C   9)          121.5808         0.422763   
     73. A(C   1,C   4,C   6)          123.1988         0.413455   
     74. A(H  25,C   5,H  26)          105.5877         0.288520   
     75. A(C   3,C   5,H  25)          110.0592         0.326476   
     76. A(C   6,C   5,H  26)          109.0327         0.328075   
     77. A(C   3,C   5,H  26)          110.7051         0.326765   
     78. A(C   6,C   5,H  25)          108.2530         0.327784   
     79. A(C   3,C   5,C   6)          112.9127         0.373557   
     80. A(C   4,C   6,C   5)          122.5910         0.418392   
     81. A(C   5,C   6,C  10)          113.8976         0.374112   
     82. A(C   4,C   6,C  10)          123.4952         0.417225   
     83. A(H  28,C   7,H  29)          107.4709         0.291291   
     84. A(H  27,C   7,H  29)          107.4528         0.291259   
     85. A(H  27,C   7,H  28)          107.4296         0.291699   
     86. A(C   1,C   7,H  28)          111.2803         0.324664   
     87. A(C   1,C   7,H  27)          111.7127         0.324627   
     88. A(C   1,C   7,H  29)          111.2751         0.324153   
     89. A(H  30,C   8,H  32)          107.4598         0.290913   
     90. A(C   1,C   8,H  32)          111.6810         0.323905   
     91. A(H  30,C   8,H  31)          107.2001         0.291243   
     92. A(C   1,C   8,H  31)          112.0224         0.324289   
     93. A(C   1,C   8,H  30)          110.4850         0.323744   
     94. A(H  31,C   8,H  32)          107.7686         0.291382   
     95. A(C  11,C   9,H  33)          119.3933         0.368741   
     96. A(C   4,C   9,H  33)          116.6712         0.333944   
     97. A(C   4,C   9,C  11)          123.9083         0.424503   
     98. A(H  34,C  10,H  36)          106.9377         0.289644   
     99. A(C   6,C  10,H  36)          110.0012         0.327902   
    100. A(H  34,C  10,H  35)          108.1026         0.290920   
    101. A(C   6,C  10,H  35)          112.5734         0.329421   
    102. A(C   6,C  10,H  34)          110.6239         0.327607   
    103. A(H  35,C  10,H  36)          108.4087         0.291170   
    104. A(C   9,C  11,C  12)          126.0227         0.425783   
    105. A(C  12,C  11,H  37)          115.5560         0.334592   
    106. A(C   9,C  11,H  37)          118.4212         0.368415   
    107. A(C  13,C  12,C  14)          124.0497         0.416415   
    108. A(C  11,C  12,C  14)          118.6196         0.421933   
    109. A(C  11,C  12,C  13)          117.3307         0.380109   
    110. A(H  39,C  13,H  40)          107.3120         0.290130   
    111. A(H  38,C  13,H  40)          108.0678         0.291124   
    112. A(C  12,C  13,H  40)          110.5650         0.328954   
    113. A(H  38,C  13,H  39)          108.0884         0.291132   
    114. A(C  12,C  13,H  39)          110.5626         0.328963   
    115. A(C  12,C  13,H  38)          112.0762         0.330150   
    116. A(C  12,C  14,C  15)          127.0980         0.425961   
    117. A(C  15,C  14,H  41)          114.8464         0.337339   
    118. A(C  12,C  14,H  41)          118.0555         0.364972   
    119. A(C  14,C  15,C  16)          123.0768         0.428065   
    120. A(C  16,C  15,H  42)          119.3630         0.367748   
    121. A(C  14,C  15,H  42)          117.5602         0.338281   
    122. A(C  15,C  16,C  17)          125.6999         0.424437   
    123. A(C  17,C  16,H  43)          115.8289         0.334667   
    124. A(C  15,C  16,H  43)          118.4709         0.366679   
    125. A(C  18,C  17,C  19)          122.8883         0.418184   
    126. A(C  16,C  17,C  19)          119.2869         0.423906   
    127. A(C  16,C  17,C  18)          117.8247         0.380696   
    128. A(H  45,C  18,H  46)          108.9521         0.291532   
    129. A(H  44,C  18,H  46)          107.4580         0.290276   
    130. A(C  17,C  18,H  46)          110.3095         0.329147   
    131. A(H  44,C  18,H  45)          108.0751         0.291666   
    132. A(C  17,C  18,H  45)          111.4356         0.330805   
    133. A(C  17,C  18,H  44)          110.4935         0.329305   
    134. A(C  17,C  19,C  20)          124.8907         0.416156   
    135. A(C  20,C  19,H  47)          116.5532         0.328798   
    136. A(C  17,C  19,H  47)          118.5520         0.366027   
    137. A(O   0,C  20,C  19)          113.0274         0.383984   
    138. A(H  48,C  20,H  49)          107.2160         0.287890   
    139. A(C  19,C  20,H  49)          110.8928         0.326662   
    140. A(O   0,C  20,H  49)          106.1308         0.336561   
    141. A(C  19,C  20,H  48)          108.9397         0.325990   
    142. A(O   0,C  20,H  48)          110.4625         0.335860   
    143. D(C   3,C   2,C   1,C   7)    -75.3101         0.011473   
    144. D(C   3,C   2,C   1,C   8)    165.8667         0.011473   
    145. D(H  21,C   2,C   1,C   8)     45.4871         0.011473   
    146. D(C   3,C   2,C   1,C   4)     44.5233         0.011473   
    147. D(H  21,C   2,C   1,C   7)    164.3103         0.011473   
    148. D(H  21,C   2,C   1,C   4)    -75.8563         0.011473   
    149. D(C   5,C   3,C   2,H  22)    174.8175         0.012904   
    150. D(H  23,C   3,C   2,H  22)     52.9416         0.012904   
    151. D(C   5,C   3,C   2,C   1)    -62.1910         0.012904   
    152. D(H  23,C   3,C   2,C   1)    175.9331         0.012904   
    153. D(H  23,C   3,C   2,H  21)    -63.1407         0.012904   
    154. D(C   5,C   3,C   2,H  21)     58.7353         0.012904   
    155. D(C   6,C   4,C   1,C   8)   -133.8387         0.010960   
    156. D(C   6,C   4,C   1,C   7)    107.2271         0.010960   
    157. D(C   6,C   4,C   1,C   2)    -13.8364         0.010960   
    158. D(C   9,C   4,C   1,C   2)    167.9334         0.010960   
    159. D(C   9,C   4,C   1,C   7)    -71.0031         0.010960   
    160. D(H  25,C   5,C   3,C   2)    -74.2804         0.012700   
    161. D(H  25,C   5,C   3,H  23)     47.8343         0.012700   
    162. D(C   6,C   5,C   3,H  24)    -74.0625         0.012700   
    163. D(C   6,C   5,C   3,C   2)     46.8066         0.012700   
    164. D(H  25,C   5,C   3,H  24)    164.8504         0.012700   
    165. D(C   6,C   5,C   3,H  23)    168.9214         0.012700   
    166. D(C   4,C   6,C   5,H  26)   -140.8953         0.012445   
    167. D(C   4,C   6,C   5,H  25)    104.7059         0.012445   
    168. D(C   4,C   6,C   5,C   3)    -17.4012         0.012445   
    169. D(C  10,C   6,C   4,C   9)     -2.9712         0.041736   
    170. D(C  10,C   6,C   4,C   1)    178.9086         0.041736   
    171. D(C   5,C   6,C   4,C   9)    178.5861         0.041736   
    172. D(C  10,C   6,C   5,C   3)    164.0192         0.012445   
    173. D(C   5,C   6,C   4,C   1)      0.4659         0.041736   
    174. D(C  10,C   6,C   5,H  25)    -73.8737         0.012445   
    175. D(H  28,C   7,C   1,C   8)    -61.2278         0.011075   
    176. D(H  28,C   7,C   1,C   4)     58.8202         0.011075   
    177. D(H  28,C   7,C   1,C   2)   -179.7484         0.011075   
    178. D(H  27,C   7,C   1,C   8)    178.6996         0.011075   
    179. D(H  27,C   7,C   1,C   4)    -61.2523         0.011075   
    180. D(H  27,C   7,C   1,C   2)     60.1791         0.011075   
    181. D(H  31,C   8,C   1,C   7)     52.4610         0.010934   
    182. D(H  31,C   8,C   1,C   4)    -66.1582         0.010934   
    183. D(H  31,C   8,C   1,C   2)    172.2640         0.010934   
    184. D(H  30,C   8,C   1,C   7)    -66.9864         0.010934   
    185. D(H  30,C   8,C   1,C   4)    174.3943         0.010934   
    186. D(H  30,C   8,C   1,C   2)     52.8165         0.010934   
    187. D(H  33,C   9,C   4,C   6)    118.7314         0.012891   
    188. D(H  33,C   9,C   4,C   1)    -63.0069         0.012891   
    189. D(C  11,C   9,C   4,C   6)    -63.1788         0.012891   
    190. D(C  11,C   9,C   4,C   1)    115.0829         0.012891   
    191. D(H  36,C  10,C   6,C   4)   -134.7935         0.012076   
    192. D(H  35,C  10,C   6,C   5)    164.7866         0.012076   
    193. D(H  35,C  10,C   6,C   4)    -13.7784         0.012076   
    194. D(H  34,C  10,C   6,C   5)    -74.1493         0.012076   
    195. D(H  34,C  10,C   6,C   4)    107.2857         0.012076   
    196. D(H  37,C  11,C   9,H  33)    178.6496         0.043902   
    197. D(H  37,C  11,C   9,C   4)      0.6087         0.043902   
    198. D(C  12,C  11,C   9,H  33)     -1.1883         0.043902   
    199. D(C  12,C  11,C   9,C   4)   -179.2291         0.043902   
    200. D(C  14,C  12,C  11,H  37)     -0.0608         0.013320   
    201. D(C  14,C  12,C  11,C   9)    179.7811         0.013320   
    202. D(C  13,C  12,C  11,H  37)    179.8789         0.013320   
    203. D(C  13,C  12,C  11,C   9)     -0.2792         0.013320   
    204. D(H  38,C  13,C  12,C  14)      0.1589         0.012474   
    205. D(H  38,C  13,C  12,C  11)   -179.7772         0.012474   
    206. D(H  40,C  13,C  12,C  11)     59.5843         0.012474   
    207. D(H  39,C  13,C  12,C  14)    120.8220         0.012474   
    208. D(H  39,C  13,C  12,C  11)    -59.1140         0.012474   
    209. D(H  41,C  14,C  12,C  13)   -179.9628         0.039263   
    210. D(H  41,C  14,C  12,C  11)     -0.0275         0.039263   
    211. D(C  15,C  14,C  12,C  13)      0.0202         0.039263   
    212. D(C  15,C  14,C  12,C  11)    179.9555         0.039263   
    213. D(H  42,C  15,C  14,H  41)   -179.9685         0.014788   
    214. D(H  42,C  15,C  14,C  12)      0.0480         0.014788   
    215. D(C  16,C  15,C  14,H  41)      0.0976         0.014788   
    216. D(C  16,C  15,C  14,C  12)   -179.8858         0.014788   
    217. D(H  43,C  16,C  15,H  42)   -179.8921         0.041706   
    218. D(H  43,C  16,C  15,C  14)      0.0406         0.041706   
    219. D(C  17,C  16,C  15,H  42)     -0.0798         0.041706   
    220. D(C  17,C  16,C  15,C  14)    179.8529         0.041706   
    221. D(C  19,C  17,C  16,H  43)      1.0739         0.013466   
    222. D(C  19,C  17,C  16,C  15)   -178.7428         0.013466   
    223. D(C  18,C  17,C  16,H  43)   -178.7962         0.013466   
    224. D(C  18,C  17,C  16,C  15)      1.3871         0.013466   
    225. D(H  46,C  18,C  17,C  16)     57.1324         0.012554   
    226. D(H  45,C  18,C  17,C  19)     -1.5782         0.012554   
    227. D(H  45,C  18,C  17,C  16)    178.2869         0.012554   
    228. D(H  44,C  18,C  17,C  19)    118.5927         0.012554   
    229. D(H  44,C  18,C  17,C  16)    -61.5422         0.012554   
    230. D(H  47,C  19,C  17,C  18)    179.5585         0.041070   
    231. D(H  47,C  19,C  17,C  16)     -0.3047         0.041070   
    232. D(C  20,C  19,C  17,C  18)     -1.2067         0.041070   
    233. D(C  20,C  19,C  17,C  16)    178.9301         0.041070   
    234. D(H  49,C  20,C  19,C  17)     59.9693         0.011913   
    235. D(H  48,C  20,C  19,H  47)     -3.0120         0.011913   
    236. D(H  48,C  20,C  19,C  17)    177.7393         0.011913   
    237. D(O   0,C  20,C  19,H  47)    120.1807         0.011913   
    238. D(O   0,C  20,C  19,C  17)    -59.0679         0.011913   
    239. D(H  49,C  20,O   0,H  50)    179.1007         0.019576   
    240. D(H  48,C  20,O   0,H  50)     63.2026         0.019576   
    241. D(C  19,C  20,O   0,H  50)    -59.1431         0.019576   
    -----------------------------------------------------------------

Number of atoms                         .... 51
Number of degrees of freedom            .... 241


         *************************************************************
         *                GEOMETRY OPTIMIZATION CYCLE   1            *
         *************************************************************
---------------------------------
CARTESIAN COORDINATES (ANGSTROEM)
---------------------------------
  O      8.376227   -0.037695    1.672850
  C     -3.966908   -0.141868   -1.322566
  C     -5.400829    0.350625   -1.151064
  C     -5.472652    1.660890   -0.405810
  C     -3.183566    0.005775   -0.024960
  C     -4.918668    1.480238    0.988685
  C     -3.610362    0.737137    1.007597
  C     -3.253334    0.669434   -2.407101
  C     -4.013186   -1.610936   -1.757319
  C     -1.870494   -0.695391    0.006028
  C     -2.851194    0.868906    2.305048
  C     -0.699509   -0.073000    0.095369
  C      0.635058   -0.722407    0.113799
  C      0.673753   -2.223965    0.029865
  C      1.727043    0.054010    0.204627
  C      3.128541   -0.387630    0.238816
  C      4.157302    0.458654    0.333198
  C      5.589765    0.078015    0.375432
  C      5.930994   -1.382791    0.274839
  C      6.517319    1.033712    0.497210
  C      8.006077    0.788168    0.576130
  H     -5.974546   -0.393609   -0.595128
  H     -5.879836    0.434972   -2.130130
  H     -6.506069    2.025427   -0.360750
  H     -4.897069    2.423932   -0.933950
  H     -5.636109    0.929124    1.610346
  H     -4.785967    2.450306    1.481690
  H     -3.213294    1.727170   -2.157427
  H     -2.230158    0.328592   -2.545917
  H     -3.761410    0.579174   -3.367166
  H     -4.655407   -1.730473   -2.630122
  H     -3.029519   -1.987256   -2.027930
  H     -4.409106   -2.251354   -0.970024
  H     -1.893545   -1.774567   -0.080833
  H     -2.402191    1.863271    2.389640
  H     -2.060050    0.132382    2.401429
  H     -3.533819    0.754818    3.150792
  H     -0.693931    1.009407    0.159336
  H      1.689417   -2.608141    0.054086
  H      0.123000   -2.668939    0.861335
  H      0.203085   -2.568853   -0.893334
  H      1.586047    1.128761    0.260495
  H      3.319505   -1.450122    0.185251
  H      3.948850    1.522514    0.387878
  H      5.498385   -1.934650    1.111024
  H      7.003153   -1.540799    0.286401
  H      5.520060   -1.805610   -0.644394
  H      6.191939    2.068502    0.557012
  H      8.525448    1.756887    0.631481
  H      8.366721    0.277404   -0.325418
  H      8.085036    0.391847    2.483654

----------------------------
CARTESIAN COORDINATES (A.U.)
----------------------------
  NO LB      ZA    FRAG     MASS         X           Y           Z
   0 O     8.0000    0    15.999   15.828776   -0.071234    3.161229
   1 C     6.0000    0    12.011   -7.496370   -0.268091   -2.499287
   2 C     6.0000    0    12.011  -10.206088    0.662586   -2.175197
   3 C     6.0000    0    12.011  -10.341813    3.138628   -0.766870
   4 C     6.0000    0    12.011   -6.016068    0.010912   -0.047167
   5 C     6.0000    0    12.011   -9.294936    2.797244    1.868345
   6 C     6.0000    0    12.011   -6.822595    1.392988    1.904083
   7 C     6.0000    0    12.011   -6.147910    1.265046   -4.548761
   8 C     6.0000    0    12.011   -7.583822   -3.044228   -3.320853
   9 C     6.0000    0    12.011   -3.534722   -1.314099    0.011391
  10 C     6.0000    0    12.011   -5.387976    1.641994    4.355910
  11 C     6.0000    0    12.011   -1.321880   -0.137950    0.180221
  12 C     6.0000    0    12.011    1.200086   -1.365152    0.215050
  13 C     6.0000    0    12.011    1.273209   -4.202685    0.056437
  14 C     6.0000    0    12.011    3.263638    0.102064    0.386690
  15 C     6.0000    0    12.011    5.912086   -0.732514    0.451297
  16 C     6.0000    0    12.011    7.856163    0.866731    0.629654
  17 C     6.0000    0    12.011   10.563126    0.147426    0.709463
  18 C     6.0000    0    12.011   11.207954   -2.613096    0.519371
  19 C     6.0000    0    12.011   12.315949    1.953432    0.939591
  20 C     6.0000    0    12.011   15.129294    1.489422    1.088729
  21 H     1.0000    0     1.008  -11.290256   -0.743812   -1.124630
  22 H     1.0000    0     1.008  -11.111279    0.821978   -4.025363
  23 H     1.0000    0     1.008  -12.294689    3.827503   -0.681719
  24 H     1.0000    0     1.008   -9.254119    4.580568   -1.764909
  25 H     1.0000    0     1.008  -10.650703    1.755789    3.043113
  26 H     1.0000    0     1.008   -9.044166    4.630408    2.799989
  27 H     1.0000    0     1.008   -6.072245    3.263877   -4.076947
  28 H     1.0000    0     1.008   -4.214388    0.620949   -4.811087
  29 H     1.0000    0     1.008   -7.108035    1.094480   -6.363022
  30 H     1.0000    0     1.008   -8.797444   -3.270120   -4.970210
  31 H     1.0000    0     1.008   -5.724961   -3.755369   -3.832232
  32 H     1.0000    0     1.008   -8.332004   -4.254442   -1.833081
  33 H     1.0000    0     1.008   -3.578281   -3.353445   -0.152752
  34 H     1.0000    0     1.008   -4.539484    3.521073    4.515764
  35 H     1.0000    0     1.008   -3.892930    0.250165    4.538043
  36 H     1.0000    0     1.008   -6.677949    1.426400    5.954133
  37 H     1.0000    0     1.008   -1.311339    1.907503    0.301102
  38 H     1.0000    0     1.008    3.192535   -4.928672    0.102208
  39 H     1.0000    0     1.008    0.232436   -5.043563    1.627686
  40 H     1.0000    0     1.008    0.383775   -4.854428   -1.688157
  41 H     1.0000    0     1.008    2.997194    2.133050    0.492265
  42 H     1.0000    0     1.008    6.272955   -2.740334    0.350074
  43 H     1.0000    0     1.008    7.462246    2.877134    0.732983
  44 H     1.0000    0     1.008   10.390442   -3.655958    2.099531
  45 H     1.0000    0     1.008   13.234042   -2.911688    0.541219
  46 H     1.0000    0     1.008   10.431401   -3.412108   -1.217729
  47 H     1.0000    0     1.008   11.701068    3.908903    1.052600
  48 H     1.0000    0     1.008   16.110762    3.320036    1.193327
  49 H     1.0000    0     1.008   15.810811    0.524217   -0.614951
  50 H     1.0000    0     1.008   15.278504    0.740483    4.693426

--------------------------------
INTERNAL COORDINATES (ANGSTROEM)
--------------------------------
 O      0   0   0     0.000000000000     0.00000000     0.00000000
 C      1   0   0    12.701824921336     0.00000000     0.00000000
 C      2   1   0     1.525808492682   152.13914742     0.00000000
 C      3   2   1     1.509091570428   112.36366787    16.80869721
 C      2   1   3     1.522893183945    45.44562453   322.42441814
 C      4   3   2     1.511340981172   109.53815700   297.80902607
 C      5   2   1     1.335372715217   123.19881271   148.40549624
 C      2   1   5     1.530886318990    73.12801422   139.18913190
 C      2   1   5     1.532747222455    95.97479730   246.98342225
 C      5   2   1     1.488875993373   115.19610452   330.17524503
 C      7   5   2     1.508999044134   123.49518511   178.90860838
 C     10   5   2     1.329120084247   123.90831208   115.08292956
 C     12  10   5     1.484297160692   126.02267117   180.77091547
 C     13  12  10     1.504399946596   117.33070496   359.72077255
 C     13  12  10     1.342946287363   118.61958750   179.78114030
 C     15  13  12     1.469834122140   127.09803803   179.95548846
 C     16  15  13     1.335460431266   123.07681100   180.11419451
 C     17  16  15     1.482774502907   125.69994177   179.85285686
 C     18  17  16     1.503498633000   117.82471415     1.38708613
 C     18  17  16     1.337364249096   119.28685375   181.25719110
 C      1   2   3     1.421919604288    64.52650027   265.26551358
 H      3   2   1     1.091833453168   109.33154620   256.42908291
 H      3   2   1     1.093220740227   109.63422543   140.42979574
 H      4   3   2     1.096753998278   110.71506221   175.93307982
 H      4   3   2     1.091998016224   110.04536500    58.44919059
 H      6   4   3     1.097683910051   110.05917945   285.71955310
 H      6   4   3     1.096219315549   110.70512910   169.37105011
 H      8   2   1     1.087541017878   111.71272006   269.38912689
 H      8   2   1     1.087350902353   111.28029371    29.46168298
 H      8   2   1     1.089960920616   111.27507343   149.29067358
 H      9   2   1     1.090193071655   110.48495708   218.83568814
 H      9   2   1     1.087403666549   112.02239432   338.28313772
 H      9   2   1     1.089367643156   111.68097750    99.28463776
 H     10   5   2     1.082910796668   116.67123800   296.99313086
 H     11   7   5     1.094313243657   110.62391848   107.28570290
 H     11   7   5     1.085203766856   112.57341054   346.22164318
 H     11   7   5     1.092828302427   110.00124035   225.20652754
 H     12  10   5     1.084310040411   118.42116424     0.60872897
 H     14  13  12     1.086163067641   112.07618508   180.22284734
 H     14  13  12     1.092094902262   110.56260771   300.88596564
 H     14  13  12     1.092141491389   110.56504737    59.58428360
 H     15  13  12     1.085399013794   118.05552502   359.97250280
 H     16  15  13     1.080845342622   117.56019332     0.04801789
 H     17  16  15     1.085467242643   118.47086480     0.04055532
 H     19  18  17     1.091285231342   110.49347525   298.45776903
 H     19  18  17     1.083801817272   111.43560397   178.28688938
 H     19  18  17     1.092077384620   110.30949497    57.13235481
 H     20  18  17     1.086388751207   118.55198961   359.69529074
 H     21   1   2     1.100557418628   110.46245324   137.94536893
 H     21   1   2     1.097147849008   106.13081157   253.84350170
 H      1   2   3     0.962653394335    84.74088688    18.25780796

---------------------------
INTERNAL COORDINATES (A.U.)
---------------------------
 O      0   0   0     0.000000000000     0.00000000     0.00000000
 C      1   0   0    24.002970502341     0.00000000     0.00000000
 C      2   1   0     2.883360183981   152.13914742     0.00000000
 C      3   2   1     2.851769779119   112.36366787    16.80869721
 C      2   1   3     2.877851048872    45.44562453   322.42441814
 C      4   3   2     2.856020549387   109.53815700   297.80902607
 C      5   2   1     2.523488718471   123.19881271   148.40549624
 C      2   1   5     2.892955885057    73.12801422   139.18913190
 C      2   1   5     2.896472482968    95.97479730   246.98342225
 C      5   2   1     2.813567874845   115.19610452   330.17524503
 C      7   5   2     2.851594929762   123.49518511   178.90860838
 C     10   5   2     2.511672958321   123.90831208   115.08292956
 C     12  10   5     2.804915135066   126.02267117   180.77091547
 C     13  12  10     2.842903894952   117.33070496   359.72077255
 C     13  12  10     2.537800695683   118.61958750   179.78114030
 C     15  13  12     2.777583953138   127.09803803   179.95548846
 C     16  15  13     2.523654477781   123.07681100   180.11419451
 C     17  16  15     2.802037728855   125.69994177   179.85285686
 C     18  17  16     2.841200659094   117.82471415     1.38708613
 C     18  17  16     2.527252172089   119.28685375   181.25719110
 C      1   2   3     2.687038636558    64.52650027   265.26551358
 H      3   2   1     2.063266210340   109.33154620   256.42908291
 H      3   2   1     2.065887802952   109.63422543   140.42979574
 H      4   3   2     2.072564693028   110.71506221   175.93307982
 H      4   3   2     2.063577189448   110.04536500    58.44919059
 H      6   4   3     2.074321971607   110.05917945   285.71955310
 H      6   4   3     2.071554289102   110.70512910   169.37105011
 H      8   2   1     2.055154683194   111.71272006   269.38912689
 H      8   2   1     2.054795416919   111.28029371    29.46168298
 H      8   2   1     2.059727636642   111.27507343   149.29067358
 H      9   2   1     2.060166338526   110.48495708   218.83568814
 H      9   2   1     2.054895126800   112.02239432   338.28313772
 H      9   2   1     2.058606504720   111.68097750    99.28463776
 H     10   5   2     2.046404833169   116.67123800   296.99313086
 H     11   7   5     2.067952335234   110.62391848   107.28570290
 H     11   7   5     2.050737918858   112.57341054   346.22164318
 H     11   7   5     2.065146202986   110.00124035   225.20652754
 H     12  10   5     2.049049020639   118.42116424     0.60872897
 H     14  13  12     2.052550734622   112.07618508   180.22284734
 H     14  13  12     2.063760277526   110.56260771   300.88596564
 H     14  13  12     2.063848318218   110.56504737    59.58428360
 H     15  13  12     2.051106882098   118.05552502   359.97250280
 H     16  15  13     2.042501690680   117.56019332     0.04801789
 H     17  16  15     2.051235815938   118.47086480     0.04055532
 H     19  18  17     2.062230221229   110.49347525   298.45776903
 H     19  18  17     2.048088618089   111.43560397   178.28688938
 H     19  18  17     2.063727173980   110.30949497    57.13235481
 H     20  18  17     2.052977214754   118.55198961   359.69529074
 H     21   1   2     2.079752115862   110.46245324   137.94536893
 H     21   1   2     2.073308963046   106.13081157   253.84350170
 H      1   2   3     1.819151277182    84.74088688    18.25780796

---------------------
BASIS SET INFORMATION
---------------------
There are 3 groups of distinct atoms

 Group   1 Type O   : 11s6p2d contracted to 5s3p2d pattern {62111/411/11}
 Group   2 Type C   : 11s6p1d contracted to 5s3p1d pattern {62111/411/1}
 Group   3 Type H   : 5s contracted to 3s pattern {311}

Atom   0O    basis set group =>   1
Atom   1C    basis set group =>   2
Atom   2C    basis set group =>   2
Atom   3C    basis set group =>   2
Atom   4C    basis set group =>   2
Atom   5C    basis set group =>   2
Atom   6C    basis set group =>   2
Atom   7C    basis set group =>   2
Atom   8C    basis set group =>   2
Atom   9C    basis set group =>   2
Atom  10C    basis set group =>   2
Atom  11C    basis set group =>   2
Atom  12C    basis set group =>   2
Atom  13C    basis set group =>   2
Atom  14C    basis set group =>   2
Atom  15C    basis set group =>   2
Atom  16C    basis set group =>   2
Atom  17C    basis set group =>   2
Atom  18C    basis set group =>   2
Atom  19C    basis set group =>   2
Atom  20C    basis set group =>   2
Atom  21H    basis set group =>   3
Atom  22H    basis set group =>   3
Atom  23H    basis set group =>   3
Atom  24H    basis set group =>   3
Atom  25H    basis set group =>   3
Atom  26H    basis set group =>   3
Atom  27H    basis set group =>   3
Atom  28H    basis set group =>   3
Atom  29H    basis set group =>   3
Atom  30H    basis set group =>   3
Atom  31H    basis set group =>   3
Atom  32H    basis set group =>   3
Atom  33H    basis set group =>   3
Atom  34H    basis set group =>   3
Atom  35H    basis set group =>   3
Atom  36H    basis set group =>   3
Atom  37H    basis set group =>   3
Atom  38H    basis set group =>   3
Atom  39H    basis set group =>   3
Atom  40H    basis set group =>   3
Atom  41H    basis set group =>   3
Atom  42H    basis set group =>   3
Atom  43H    basis set group =>   3
Atom  44H    basis set group =>   3
Atom  45H    basis set group =>   3
Atom  46H    basis set group =>   3
Atom  47H    basis set group =>   3
Atom  48H    basis set group =>   3
Atom  49H    basis set group =>   3
Atom  50H    basis set group =>   3
---------------------------------
AUXILIARY/J BASIS SET INFORMATION
---------------------------------
There are 3 groups of distinct atoms

 Group   1 Type O   : 8s3p3d contracted to 6s3p3d pattern {311111/111/111}
 Group   2 Type C   : 8s3p3d contracted to 6s3p3d pattern {311111/111/111}
 Group   3 Type H   : 5s2p contracted to 3s1p pattern {311/2}

Atom   0O    basis set group =>   1
Atom   1C    basis set group =>   2
Atom   2C    basis set group =>   2
Atom   3C    basis set group =>   2
Atom   4C    basis set group =>   2
Atom   5C    basis set group =>   2
Atom   6C    basis set group =>   2
Atom   7C    basis set group =>   2
Atom   8C    basis set group =>   2
Atom   9C    basis set group =>   2
Atom  10C    basis set group =>   2
Atom  11C    basis set group =>   2
Atom  12C    basis set group =>   2
Atom  13C    basis set group =>   2
Atom  14C    basis set group =>   2
Atom  15C    basis set group =>   2
Atom  16C    basis set group =>   2
Atom  17C    basis set group =>   2
Atom  18C    basis set group =>   2
Atom  19C    basis set group =>   2
Atom  20C    basis set group =>   2
Atom  21H    basis set group =>   3
Atom  22H    basis set group =>   3
Atom  23H    basis set group =>   3
Atom  24H    basis set group =>   3
Atom  25H    basis set group =>   3
Atom  26H    basis set group =>   3
Atom  27H    basis set group =>   3
Atom  28H    basis set group =>   3
Atom  29H    basis set group =>   3
Atom  30H    basis set group =>   3
Atom  31H    basis set group =>   3
Atom  32H    basis set group =>   3
Atom  33H    basis set group =>   3
Atom  34H    basis set group =>   3
Atom  35H    basis set group =>   3
Atom  36H    basis set group =>   3
Atom  37H    basis set group =>   3
Atom  38H    basis set group =>   3
Atom  39H    basis set group =>   3
Atom  40H    basis set group =>   3
Atom  41H    basis set group =>   3
Atom  42H    basis set group =>   3
Atom  43H    basis set group =>   3
Atom  44H    basis set group =>   3
Atom  45H    basis set group =>   3
Atom  46H    basis set group =>   3
Atom  47H    basis set group =>   3
Atom  48H    basis set group =>   3
Atom  49H    basis set group =>   3
Atom  50H    basis set group =>   3


           ************************************************************
           *        Program running with 16 parallel MPI-processes    *
           *              working on a common directory               *
           ************************************************************
------------------------------------------------------------------------------
                             ORCA STARTUP CALCULATIONS
                           -- RI-GTO INTEGRALS CHOSEN --
------------------------------------------------------------------------------
------------------------------------------------------------------------------
                   ___                                                        
                  /   \      - P O W E R E D   B Y -                         
                 /     \                                                     
                 |  |  |   _    _      __       _____    __    __             
                 |  |  |  | |  | |    /  \     |  _  \  |  |  /  |          
                  \  \/   | |  | |   /    \    | | | |  |  | /  /          
                 / \  \   | |__| |  /  /\  \   | |_| |  |  |/  /          
                |  |  |   |  __  | /  /__\  \  |    /   |      \           
                |  |  |   | |  | | |   __   |  |    \   |  |\   \          
                \     /   | |  | | |  |  |  |  | |\  \  |  | \   \       
                 \___/    |_|  |_| |__|  |__|  |_| \__\ |__|  \__/        
                                                                              
                      - O R C A' S   B I G   F R I E N D -                    
                                      &                                       
                       - I N T E G R A L  F E E D E R -                       
                                                                              
 v1 FN, 2020, v2 2021, v3 2022-2024                                           
------------------------------------------------------------------------------


----------------------
SHARK INTEGRAL PACKAGE
----------------------

Number of atoms                             ...     51
Number of basis functions                   ...    494
Number of shells                            ...    280
Maximum angular momentum                    ...      2
Integral batch strategy                     ... SHARK/LIBINT Hybrid
RI-J (if used) integral strategy            ... SPLIT-RIJ (Revised 2003 algorithm where possible)
Printlevel                                  ...      1
Contraction scheme used                     ... SEGMENTED contraction
Prescreening option                         ... SCHWARTZ
   Thresh                                   ... 2.500e-11
   Tcut                                     ... 2.500e-12
   Tpresel                                  ... 2.500e-12 
Coulomb Range Separation                    ... NOT USED
Exchange Range Separation                   ... NOT USED
Multipole approximations                    ... NOT USED
Finite Nucleus Model                        ... NOT USED
CABS basis                                  ... NOT available
Auxiliary Coulomb fitting basis             ... AVAILABLE
   # of basis functions in Aux-J            ...    810
   # of shells in Aux-J                     ...    372
   Maximum angular momentum in Aux-J        ...      2
Auxiliary J/K fitting basis                 ... NOT available
Auxiliary Correlation fitting basis         ... NOT available
Auxiliary 'external' fitting basis          ... NOT available

Checking pre-screening integrals            ... done (  0.0 sec) Dimension = 280
Check shell pair data                       ... done (  0.0 sec)
Shell pair information
Shell pair cut-off parameter TPreSel        ...   2.5e-12
Total number of shell pairs                 ...     39340
Shell pairs after pre-screening             ...     24335
Total number of primitive shell pairs       ...    140737
Primitive shell pairs kept                  ...     55832
          la=0 lb=0:  11279 shell pairs
          la=1 lb=0:   8263 shell pairs
          la=1 lb=1:   1497 shell pairs
          la=2 lb=0:   2301 shell pairs
          la=2 lb=1:    870 shell pairs
          la=2 lb=2:    125 shell pairs

Calculating one electron integrals          ... done (  0.0 sec)
Calculating RI/J V-Matrix + Cholesky decomp.... done (  0.0 sec)
Calculating Nuclear repulsion               ... done (  0.0 sec) ENN=   1566.718107478866 Eh

Diagonalization of the overlap matrix:
Smallest eigenvalue                        ... 2.192e-05
Time for diagonalization                   ...    0.023 sec
Threshold for overlap eigenvalues          ... 1.000e-07
Number of eigenvalues below threshold      ... 0
Time for construction of square roots      ...    0.013 sec
Total time needed                          ...    0.038 sec

-------------------
DFT GRID GENERATION
-------------------

General Integration Accuracy     IntAcc      ... 4.959
Radial Grid Type                 RadialGrid  ... OptM3 with GC (2021)
Angular Grid (max. ang.)         AngularGrid ... 6 (Lebedev-590)
Angular grid pruning method      GridPruning ... 4 (adaptive)
Weight generation scheme         WeightScheme... mBecke (2022)
Basis function cutoff            BFCut       ... 1.0000e-11
Integration weight cutoff        WCut        ... 1.0000e-14
Partially contracted basis set               ... off
Rotationally invariant grid construction     ... off
Angular grids for H and He will be reduced by one unit
Diffuse basis detected: some atoms will have their outermost
                        angular grid increased by 1.

Total number of grid points                  ...   552387
Total number of batches                      ...     8658
Average number of points per batch           ...       63
Average number of grid points per atom       ...    10831
Initializing property integral containers    ... done (  0.0 sec)

SHARK setup successfully completed in   4.2 seconds

Maximum memory used throughout the entire STARTUP-calculation: 123.1 MB


           ************************************************************
           *        Program running with 16 parallel MPI-processes    *
           *              working on a common directory               *
           ************************************************************
-------------------------------------------------------------------------------
                                 ORCA GUESS
                   Start orbitals & Density for SCF / CASSCF
-------------------------------------------------------------------------------

------------
SCF SETTINGS
------------
Hamiltonian:
 Density Functional     Method          .... DFT(GTOs)
 Exchange Functional    Exchange        .... B973C
 Correlation Functional Correlation     .... B973C
 Gradients option       PostSCFGGA      .... off
 RI-approximation to the Coulomb term is turned on
   Number of AuxJ basis functions       .... 810


General Settings:
 Integral files         IntName         .... m1_00_Vitamin_A-QM3_002-B97-3C-TZ
 Hartree-Fock type      HFTyp           .... RHF
 Total Charge           Charge          ....    0
 Multiplicity           Mult            ....    1
 Number of Electrons    NEL             ....  158
 Basis Dimension        Dim             ....  494
 Nuclear Repulsion      ENuc            ....   1566.7181074789 Eh

Convergence Acceleration:
 AO-DIIS                CNVDIIS         .... on
   Start iteration      DIISMaxIt       ....    12
   Startup error        DIISStart       ....  0.200000
   # of expansion vecs  DIISMaxEq       ....     5
   Bias factor          DIISBfac        ....   1.050
   Max. coefficient     DIISMaxC        ....  10.000
 MO-DIIS                CNVKDIIS        .... off
 Trust-Rad. Augm. Hess. CNVTRAH         .... off
 SOSCF                  CNVSOSCF        .... on
   Start iteration      SOSCFMaxIt      ....   150
   Startup grad/error   SOSCFStart      ....  0.003300
   Hessian update       SOSCFHessUp     .... L-BFGS
 Level Shifting         CNVShift        .... on
   Level shift para.    LevelShift      ....    0.2500
   Turn off err/grad.   ShiftErr        ....    0.0010
 Zerner damping         CNVZerner       .... off
 Static damping         CNVDamp         .... on
   Fraction old density DampFac         ....    0.7000
   Max. Damping (<1)    DampMax         ....    0.9800
   Min. Damping (>=0)   DampMin         ....    0.0000
   Turn off err/grad.   DampErr         ....    0.1000

SCF Procedure:
 Maximum # iterations   MaxIter         ....   800
 SCF integral mode      SCFMode         .... Direct
   Integral package                     .... SHARK and LIBINT hybrid scheme
 Reset frequency        DirectResetFreq ....    20
 Integral Threshold     Thresh          ....  2.500e-11 Eh
 Primitive CutOff       TCut            ....  2.500e-12 Eh

Convergence Tolerance:
 Convergence Check Mode ConvCheckMode   .... Total+1el-Energy
 Convergence forced     ConvForced      .... 0
 Energy Change          TolE            ....  1.000e-08 Eh
 1-El. energy change                    ....  1.000e-05 Eh
 Orbital Gradient       TolG            ....  1.000e-05
 Orbital Rotation angle TolX            ....  1.000e-05
 DIIS Error             TolErr          ....  5.000e-07

--------------------------------
INITIAL GUESS: MINIMAL BASIS EHT
--------------------------------
The minimal basis has 135 functions
EHT matrix was diagonalized
Basis set overlap was calculated now projecting the orbitals
Using GuessMode=FMatrix for the initial guess
C*T matrix was formed
Effective Fockian was calculated
Effective Fockian was diagonalized
Initial density was built
                      ------------------
                      INITIAL GUESS DONE
                      ------------------
             **** ENERGY FILE WAS UPDATED (m1_00_Vitamin_A-QM3_002-B97-3C-TZ.en.tmp) ****
Finished Guess after   0.3 sec
Maximum memory used throughout the entire GUESS-calculation: 41.6 MB


           ************************************************************
           *        Program running with 16 parallel MPI-processes    *
           *              working on a common directory               *
           ************************************************************

-------------------------------------------------------------------------------------------
                                      ORCA LEAN-SCF
                              memory conserving SCF solver
-------------------------------------------------------------------------------------------

----------------------------------------D-I-I-S--------------------------------------------
Iteration    Energy (Eh)           Delta-E    RMSDP     MaxDP     DIISErr   Damp  Time(sec)
-------------------------------------------------------------------------------------------
               ***  Starting incremental Fock matrix formation  ***
    1    -852.6724442477468529     0.00e+00  3.78e-03  1.31e-01  4.63e-01  0.700   0.8
Warning: op=0 Small HOMO/LUMO gap (   0.082) - skipping pre-diagonalization
         Will do a full diagonalization
    2    -853.2937243848525668    -6.21e-01  3.26e-03  1.43e-01  3.26e-01  0.700   0.9
    3    -853.7115466651441693    -4.18e-01  2.19e-03  6.49e-02  2.28e-01  0.700   0.8
                               ***Turning on AO-DIIS***
    4    -854.0020765620854490    -2.91e-01  1.63e-03  5.41e-02  1.59e-01  0.700   0.8
    5    -854.2019343125855357    -2.00e-01  1.15e-03  3.46e-02  1.11e-01  0.700   0.8
    6    -854.3457400435243017    -1.44e-01  8.13e-04  2.37e-02  7.76e-02  0.700   0.8
    7    -854.4473939949959913    -1.02e-01  1.92e-03  5.43e-02  5.43e-02  0.000   0.8
    8    -854.6827783992628156    -2.35e-01  2.72e-04  2.75e-02  2.21e-02  0.000   0.8
    9    -854.6832287997910953    -4.50e-04  4.84e-05  3.80e-03  1.48e-02  0.000   0.8
                              *** Initializing SOSCF ***
---------------------------------------S-O-S-C-F--------------------------------------
Iteration    Energy (Eh)           Delta-E    RMSDP     MaxDP     MaxGrad    Time(sec)
--------------------------------------------------------------------------------------
   10    -854.6834727891193779    -2.44e-04  2.96e-05  2.28e-03  2.42e-03     0.8
               *** Restarting incremental Fock matrix formation ***
   11    -854.6834877356047855    -1.49e-05  4.09e-05  5.27e-03  1.20e-04     0.9
   12    -854.6834843052477027     3.43e-06  2.16e-05  2.69e-03  3.04e-04     0.8
   13    -854.6834889178214780    -4.61e-06  6.61e-06  4.32e-04  2.20e-05     0.7
   14    -854.6834888072605736     1.11e-07  3.01e-06  1.88e-04  6.07e-05     0.7
   15    -854.6834889216804640    -1.14e-07  2.60e-06  1.68e-04  2.62e-06     0.7
   16    -854.6834889264389403    -4.76e-09  2.01e-06  1.60e-04  4.21e-06     0.7
                 **** Energy Check signals convergence ****

               *****************************************************
               *                     SUCCESS                       *
               *           SCF CONVERGED AFTER  16 CYCLES          *
               *****************************************************

             **** ENERGY FILE WAS UPDATED (m1_00_Vitamin_A-QM3_002-B97-3C-TZ.en.tmp) ****

----------------
TOTAL SCF ENERGY
----------------

Total Energy       :       -854.68348892643894 Eh          -23257.12010 eV

Components:
Nuclear Repulsion  :       1566.71810747886616 Eh           42632.56710 eV
Electronic Energy  :      -2421.40159640530510 Eh          -65889.68721 eV
One Electron Energy:      -4267.87359587962328 Eh         -116134.74472 eV
Two Electron Energy:       1846.47199947431795 Eh           50245.05752 eV

Virial components:
Potential Energy   :      -1706.08617229474135 Eh          -46424.96495 eV
Kinetic Energy     :        851.40268336830241 Eh           23167.84484 eV
Virial Ratio       :          2.00385341228331

DFT components:
N(Alpha)           :       79.000015899731 electrons
N(Beta)            :       79.000015899731 electrons
N(Total)           :      158.000031799462 electrons
E(XC)              :     -127.699894245159 Eh       

---------------
SCF CONVERGENCE
---------------

  Last Energy change         ...    4.7585e-09  Tolerance :   1.0000e-08
  Last MAX-Density change    ...    1.6016e-04  Tolerance :   1.0000e-07
  Last RMS-Density change    ...    2.0127e-06  Tolerance :   5.0000e-09
  Last DIIS Error            ...    2.4214e-03  Tolerance :   5.0000e-07
  Last Orbital Gradient      ...    4.2102e-06  Tolerance :   1.0000e-05
  Last Orbital Rotation      ...    1.0314e-05  Tolerance :   1.0000e-05


----------------
ORBITAL ENERGIES
----------------

  NO   OCC          E(Eh)            E(eV) 
   0   2.0000     -18.741799      -509.9903 
   1   2.0000      -9.939322      -270.4627 
   2   2.0000      -9.904604      -269.5180 
   3   2.0000      -9.903405      -269.4853 
   4   2.0000      -9.899400      -269.3764 
   5   2.0000      -9.893758      -269.2228 
   6   2.0000      -9.892750      -269.1954 
   7   2.0000      -9.892086      -269.1773 
   8   2.0000      -9.887932      -269.0643 
   9   2.0000      -9.887922      -269.0640 
  10   2.0000      -9.887508      -269.0528 
  11   2.0000      -9.886536      -269.0263 
  12   2.0000      -9.885647      -269.0021 
  13   2.0000      -9.884317      -268.9659 
  14   2.0000      -9.883662      -268.9481 
  15   2.0000      -9.881493      -268.8891 
  16   2.0000      -9.879525      -268.8355 
  17   2.0000      -9.877446      -268.7790 
  18   2.0000      -9.875709      -268.7317 
  19   2.0000      -9.874251      -268.6920 
  20   2.0000      -9.870266      -268.5836 
  21   2.0000      -0.940018       -25.5792 
  22   2.0000      -0.783251       -21.3133 
  23   2.0000      -0.762196       -20.7404 
  24   2.0000      -0.747701       -20.3460 
  25   2.0000      -0.718745       -19.5580 
  26   2.0000      -0.713314       -19.4103 
  27   2.0000      -0.692461       -18.8428 
  28   2.0000      -0.663228       -18.0473 
  29   2.0000      -0.649667       -17.6783 
  30   2.0000      -0.628133       -17.0924 
  31   2.0000      -0.620020       -16.8716 
  32   2.0000      -0.616231       -16.7685 
  33   2.0000      -0.611295       -16.6342 
  34   2.0000      -0.599779       -16.3208 
  35   2.0000      -0.556639       -15.1469 
  36   2.0000      -0.531757       -14.4698 
  37   2.0000      -0.511522       -13.9192 
  38   2.0000      -0.499355       -13.5881 
  39   2.0000      -0.485016       -13.1980 
  40   2.0000      -0.476890       -12.9768 
  41   2.0000      -0.455042       -12.3823 
  42   2.0000      -0.440322       -11.9818 
  43   2.0000      -0.435036       -11.8379 
  44   2.0000      -0.423818       -11.5327 
  45   2.0000      -0.414707       -11.2848 
  46   2.0000      -0.406161       -11.0522 
  47   2.0000      -0.400865       -10.9081 
  48   2.0000      -0.393110       -10.6971 
  49   2.0000      -0.388785       -10.5794 
  50   2.0000      -0.378938       -10.3114 
  51   2.0000      -0.377149       -10.2628 
  52   2.0000      -0.375716       -10.2237 
  53   2.0000      -0.371390       -10.1060 
  54   2.0000      -0.367851       -10.0097 
  55   2.0000      -0.356438        -9.6992 
  56   2.0000      -0.352201        -9.5839 
  57   2.0000      -0.350394        -9.5347 
  58   2.0000      -0.347372        -9.4525 
  59   2.0000      -0.343110        -9.3365 
  60   2.0000      -0.334396        -9.0994 
  61   2.0000      -0.331271        -9.0143 
  62   2.0000      -0.324930        -8.8418 
  63   2.0000      -0.323688        -8.8080 
  64   2.0000      -0.313386        -8.5277 
  65   2.0000      -0.308662        -8.3991 
  66   2.0000      -0.306325        -8.3355 
  67   2.0000      -0.302336        -8.2270 
  68   2.0000      -0.295296        -8.0354 
  69   2.0000      -0.292006        -7.9459 
  70   2.0000      -0.282605        -7.6901 
  71   2.0000      -0.278054        -7.5662 
  72   2.0000      -0.273789        -7.4502 
  73   2.0000      -0.260137        -7.0787 
  74   2.0000      -0.253706        -6.9037 
  75   2.0000      -0.234833        -6.3901 
  76   2.0000      -0.222043        -6.0421 
  77   2.0000      -0.200148        -5.4463 
  78   2.0000      -0.174091        -4.7373 
  79   0.0000      -0.077737        -2.1153 
  80   0.0000      -0.025030        -0.6811 
  81   0.0000       0.001946         0.0530 
  82   0.0000       0.019980         0.5437 
  83   0.0000       0.022716         0.6181 
  84   0.0000       0.031753         0.8641 
  85   0.0000       0.034661         0.9432 
  86   0.0000       0.044371         1.2074 
  87   0.0000       0.044612         1.2139 
  88   0.0000       0.047684         1.2975 
  89   0.0000       0.056036         1.5248 
*Only the first 10 virtual orbitals were printed.

                    ********************************
                    * MULLIKEN POPULATION ANALYSIS *
                    ********************************

-----------------------
MULLIKEN ATOMIC CHARGES
-----------------------
   0 O :   -0.560463
   1 C :    0.153745
   2 C :   -0.317491
   3 C :   -0.348409
   4 C :    0.172390
   5 C :   -0.312928
   6 C :    0.015080
   7 C :   -0.574495
   8 C :   -0.564240
   9 C :   -0.401901
  10 C :   -0.561071
  11 C :   -0.305287
  12 C :    0.262993
  13 C :   -0.568324
  14 C :   -0.210768
  15 C :   -0.115808
  16 C :   -0.290039
  17 C :    0.210677
  18 C :   -0.577972
  19 C :   -0.231946
  20 C :   -0.265739
  21 H :    0.168953
  22 H :    0.174939
  23 H :    0.170613
  24 H :    0.163330
  25 H :    0.164369
  26 H :    0.172728
  27 H :    0.168169
  28 H :    0.186038
  29 H :    0.168701
  30 H :    0.174188
  31 H :    0.181231
  32 H :    0.175439
  33 H :    0.192062
  34 H :    0.165562
  35 H :    0.204091
  36 H :    0.162737
  37 H :    0.152810
  38 H :    0.172753
  39 H :    0.181364
  40 H :    0.178473
  41 H :    0.136867
  42 H :    0.159164
  43 H :    0.135256
  44 H :    0.174254
  45 H :    0.214514
  46 H :    0.173110
  47 H :    0.167348
  48 H :    0.153545
  49 H :    0.182627
  50 H :    0.416762
Sum of atomic charges:    0.0000000

--------------------------------
MULLIKEN REDUCED ORBITAL CHARGES
--------------------------------
  0 O s       :     3.816213  s :     3.816213
      pz      :     1.221790  p :     4.710137
      px      :     1.854490
      py      :     1.633857
      dz2     :     0.004410  d :     0.034113
      dxz     :     0.008455
      dyz     :     0.013193
      dx2y2   :     0.002776
      dxy     :     0.005279

  1 C s       :     2.842833  s :     2.842833
      pz      :     0.987689  p :     2.945769
      px      :     0.999703
      py      :     0.958377
      dz2     :     0.011652  d :     0.057653
      dxz     :     0.012927
      dyz     :     0.010414
      dx2y2   :     0.013260
      dxy     :     0.009400

  2 C s       :     3.165218  s :     3.165218
      pz      :     1.131229  p :     3.106403
      px      :     0.978881
      py      :     0.996293
      dz2     :     0.008273  d :     0.045871
      dxz     :     0.009750
      dyz     :     0.008644
      dx2y2   :     0.009036
      dxy     :     0.010167

  3 C s       :     3.204374  s :     3.204374
      pz      :     0.957247  p :     3.098521
      px      :     1.147653
      py      :     0.993621
      dz2     :     0.010283  d :     0.045514
      dxz     :     0.006762
      dyz     :     0.011119
      dx2y2   :     0.008267
      dxy     :     0.009083

  4 C s       :     3.143023  s :     3.143023
      pz      :     0.898479  p :     2.636402
      px      :     0.851332
      py      :     0.886590
      dz2     :     0.012355  d :     0.048186
      dxz     :     0.012786
      dyz     :     0.008170
      dx2y2   :     0.007637
      dxy     :     0.007237

  5 C s       :     3.133938  s :     3.133938
      pz      :     1.041268  p :     3.132617
      px      :     0.993601
      py      :     1.097748
      dz2     :     0.007932  d :     0.046374
      dxz     :     0.010382
      dyz     :     0.010331
      dx2y2   :     0.008812
      dxy     :     0.008918

  6 C s       :     3.174262  s :     3.174262
      pz      :     0.838670  p :     2.762970
      px      :     0.964124
      py      :     0.960176
      dz2     :     0.012558  d :     0.047688
      dxz     :     0.012377
      dyz     :     0.008089
      dx2y2   :     0.007329
      dxy     :     0.007335

  7 C s       :     3.269590  s :     3.269590
      pz      :     1.057551  p :     3.266984
      px      :     1.117765
      py      :     1.091668
      dz2     :     0.010301  d :     0.037921
      dxz     :     0.007608
      dyz     :     0.004481
      dx2y2   :     0.011713
      dxy     :     0.003818

  8 C s       :     3.276038  s :     3.276038
      pz      :     1.134083  p :     3.250156
      px      :     1.141585
      py      :     0.974489
      dz2     :     0.005298  d :     0.038046
      dxz     :     0.008709
      dyz     :     0.008776
      dx2y2   :     0.008381
      dxy     :     0.006882

  9 C s       :     3.313126  s :     3.313126
      pz      :     1.033279  p :     3.047090
      px      :     1.039484
      py      :     0.974328
      dz2     :     0.003841  d :     0.041684
      dxz     :     0.007219
      dyz     :     0.001605
      dx2y2   :     0.017523
      dxy     :     0.011497

 10 C s       :     3.288908  s :     3.288908
      pz      :     1.007326  p :     3.234103
      px      :     1.086398
      py      :     1.140379
      dz2     :     0.009902  d :     0.038059
      dxz     :     0.011135
      dyz     :     0.002763
      dx2y2   :     0.004334
      dxy     :     0.009926

 11 C s       :     3.288371  s :     3.288371
      pz      :     0.989912  p :     2.974995
      px      :     1.052878
      py      :     0.932205
      dz2     :     0.003830  d :     0.041921
      dxz     :     0.008010
      dyz     :     0.001543
      dx2y2   :     0.017264
      dxy     :     0.011273

 12 C s       :     3.173969  s :     3.173969
      pz      :     0.939716  p :     2.514888
      px      :     0.947372
      py      :     0.627800
      dz2     :     0.003273  d :     0.048150
      dxz     :     0.007236
      dyz     :     0.005956
      dx2y2   :     0.015637
      dxy     :     0.016049

 13 C s       :     3.267640  s :     3.267640
      pz      :     1.117393  p :     3.262928
      px      :     1.176518
      py      :     0.969018
      dz2     :     0.007318  d :     0.037755
      dxz     :     0.006556
      dyz     :     0.007465
      dx2y2   :     0.009276
      dxy     :     0.007140

 14 C s       :     3.265118  s :     3.265118
      pz      :     1.024061  p :     2.904350
      px      :     1.051324
      py      :     0.828965
      dz2     :     0.003875  d :     0.041299
      dxz     :     0.007490
      dyz     :     0.001671
      dx2y2   :     0.017179
      dxy     :     0.011083

 15 C s       :     3.092209  s :     3.092209
      pz      :     0.994215  p :     2.982346
      px      :     1.055689
      py      :     0.932441
      dz2     :     0.003803  d :     0.041253
      dxz     :     0.007291
      dyz     :     0.002073
      dx2y2   :     0.016547
      dxy     :     0.011540

 16 C s       :     3.293826  s :     3.293826
      pz      :     1.003768  p :     2.955044
      px      :     1.027017
      py      :     0.924260
      dz2     :     0.003833  d :     0.041169
      dxz     :     0.006926
      dyz     :     0.002094
      dx2y2   :     0.016795
      dxy     :     0.011522

 17 C s       :     3.194451  s :     3.194451
      pz      :     0.925425  p :     2.545819
      px      :     0.889107
      py      :     0.731287
      dz2     :     0.003329  d :     0.049054
      dxz     :     0.006697
      dyz     :     0.007031
      dx2y2   :     0.016954
      dxy     :     0.015043

 18 C s       :     3.275412  s :     3.275412
      pz      :     1.093846  p :     3.264922
      px      :     1.205341
      py      :     0.965735
      dz2     :     0.007341  d :     0.037639
      dxz     :     0.004768
      dyz     :     0.009076
      dx2y2   :     0.010806
      dxy     :     0.005647

 19 C s       :     3.161594  s :     3.161594
      pz      :     1.054821  p :     3.031932
      px      :     0.975798
      py      :     1.001313
      dz2     :     0.003697  d :     0.038420
      dxz     :     0.004969
      dyz     :     0.002132
[...]
114:   1504.70   0.001852    9.36  0.000384  (-0.011551  0.015004 -0.005051)
115:   1513.75   0.000919    4.65  0.000190  (-0.008044  0.002054  0.010982)
116:   1520.75   0.001373    6.94  0.000282  (-0.012726 -0.006832 -0.008553)
117:   1525.22   0.000198    1.00  0.000041  ( 0.001611 -0.005937 -0.001638)
118:   1595.50   0.004990   25.22  0.000976  (-0.025778 -0.015990 -0.007478)
119:   1605.49   0.006815   34.44  0.001325  ( 0.035959  0.005198 -0.002132)
120:   1639.28   0.001922    9.71  0.000366  (-0.006412 -0.016075 -0.008144)
121:   1647.89   0.002299   11.62  0.000435  ( 0.020716  0.002451 -0.000415)
122:   1659.30   0.003832   19.36  0.000721  (-0.026581  0.003223 -0.001926)
123:   2940.99   0.011302   57.11  0.001199  (-0.023715  0.004331  0.024861)
124:   2966.25   0.026406  133.44  0.002778  ( 0.039571  0.032882 -0.011441)
125:   2973.77   0.007574   38.27  0.000795  (-0.011929  0.010596  0.023242)
126:   2975.03   0.008117   41.02  0.000851  ( 0.024708  0.015500  0.000838)
127:   2979.14   0.007676   38.79  0.000804  (-0.000748  0.017932  0.021954)
128:   2991.59   0.004738   23.94  0.000494  (-0.004817 -0.011140  0.018626)
129:   2997.19   0.017737   89.64  0.001847  (-0.009811 -0.037852 -0.017825)
130:   2997.35   0.003672   18.55  0.000382  ( 0.016809  0.009422  0.003307)
131:   2998.79   0.008809   44.52  0.000917  (-0.020651  0.020762 -0.007688)
132:   3001.15   0.003518   17.78  0.000366  ( 0.000672  0.017527  0.007630)
133:   3014.79   0.007825   39.55  0.000810  (-0.020673 -0.009609  0.017039)
134:   3020.57   0.005687   28.74  0.000588  ( 0.013641 -0.011568 -0.016360)
135:   3021.00   0.016595   83.87  0.001714  ( 0.030315 -0.012340  0.025357)
136:   3035.48   0.013052   65.96  0.001342  ( 0.028708  0.006754 -0.021727)
137:   3043.05   0.003471   17.54  0.000356  (-0.002312 -0.005816  0.017798)
138:   3049.51   0.003437   17.37  0.000352  (-0.001885 -0.004784  0.018036)
139:   3060.27   0.002596   13.12  0.000265  ( 0.004982 -0.008586  0.012892)
140:   3065.28   0.019454   98.31  0.001981  (-0.036293 -0.007328 -0.024691)
141:   3074.08   0.004835   24.44  0.000491  (-0.013780 -0.012784  0.011728)
142:   3075.12   0.000825    4.17  0.000084  (-0.004672  0.007828  0.000805)
143:   3077.32   0.009901   50.04  0.001004  (-0.025313  0.016886  0.008842)
144:   3081.02   0.001474    7.45  0.000149  ( 0.003056 -0.011594 -0.002353)
145:   3091.47   0.008034   40.60  0.000811  ( 0.009818 -0.026239 -0.005105)
146:   3100.33   0.005149   26.02  0.000518  ( 0.014639 -0.017411  0.000922)
147:   3105.12   0.000226    1.14  0.000023  ( 0.003677 -0.001717  0.002498)
148:   3109.41   0.002317   11.71  0.000233  ( 0.014206 -0.005390 -0.001288)
149:   3121.66   0.006050   30.57  0.000605  (-0.011002  0.020445  0.008107)
150:   3127.12   0.006351   32.09  0.000634  (-0.023689  0.008407  0.001375)
151:   3131.91   0.005609   28.35  0.000559  (-0.014689  0.018207  0.003410)
152:   3733.23   0.002012   10.17  0.000168  ( 0.001422  0.000988 -0.012853)

* The epsilon (eps) is given for a Dirac delta lineshape.
** The dipole moment derivative (T) already includes vibrational overlap.

The first frequency considered to be a vibration is 6
The total number of vibrations considered is 147


--------------------------
THERMOCHEMISTRY AT 298.15K
--------------------------

Temperature         ...   298.15 K
Pressure            ...     1.00 atm
Total Mass          ...   286.46 AMU
Quasi RRHO          ...     True
Cut-Off Frequency   ...     1.00 cm^-1

Throughout the following assumptions are being made:
  (1) The electronic state is orbitally nondegenerate
  (2) There are no thermally accessible electronically excited states
  (3) Hindered rotations indicated by low frequency modes are not
      treated as such but are treated as vibrations and this may
      cause some error
  (4) All equations used are the standard statistical mechanics
      equations for an ideal gas
  (5) All vibrations are strictly harmonic

freq.      17.67  E(vib)   ...       0.57 
freq.      26.92  E(vib)   ...       0.55 
freq.      33.75  E(vib)   ...       0.55 
freq.      47.95  E(vib)   ...       0.53 
freq.      57.06  E(vib)   ...       0.51 
freq.      63.49  E(vib)   ...       0.51 
freq.      87.71  E(vib)   ...       0.48 
freq.     104.09  E(vib)   ...       0.46 
freq.     109.14  E(vib)   ...       0.45 
freq.     134.60  E(vib)   ...       0.42 
freq.     153.94  E(vib)   ...       0.40 
freq.     158.69  E(vib)   ...       0.39 
freq.     162.45  E(vib)   ...       0.39 
freq.     191.12  E(vib)   ...       0.36 
freq.     192.82  E(vib)   ...       0.36 
freq.     229.63  E(vib)   ...       0.32 
freq.     235.30  E(vib)   ...       0.32 
freq.     239.85  E(vib)   ...       0.31 
freq.     257.24  E(vib)   ...       0.30 
freq.     263.37  E(vib)   ...       0.29 
freq.     266.60  E(vib)   ...       0.29 
freq.     281.48  E(vib)   ...       0.28 
freq.     288.38  E(vib)   ...       0.27 
freq.     304.85  E(vib)   ...       0.26 
freq.     319.73  E(vib)   ...       0.25 
freq.     350.98  E(vib)   ...       0.23 
freq.     357.84  E(vib)   ...       0.22 
freq.     371.33  E(vib)   ...       0.21 
freq.     378.49  E(vib)   ...       0.21 
freq.     403.74  E(vib)   ...       0.19 
freq.     427.37  E(vib)   ...       0.18 
freq.     431.00  E(vib)   ...       0.18 
freq.     469.77  E(vib)   ...       0.16 
freq.     479.66  E(vib)   ...       0.15 
freq.     491.54  E(vib)   ...       0.14 
freq.     517.74  E(vib)   ...       0.13 
freq.     535.03  E(vib)   ...       0.13 
freq.     558.93  E(vib)   ...       0.12 
freq.     580.24  E(vib)   ...       0.11 
freq.     606.38  E(vib)   ...       0.10 
freq.     636.14  E(vib)   ...       0.09 
freq.     664.73  E(vib)   ...       0.08 
freq.     733.60  E(vib)   ...       0.06 
freq.     799.09  E(vib)   ...       0.05 
freq.     809.26  E(vib)   ...       0.05 
freq.     811.45  E(vib)   ...       0.05 
freq.     848.41  E(vib)   ...       0.04 
freq.     855.45  E(vib)   ...       0.04 
freq.     866.57  E(vib)   ...       0.04 
freq.     877.91  E(vib)   ...       0.04 
freq.     891.91  E(vib)   ...       0.03 
freq.     898.48  E(vib)   ...       0.03 
freq.     913.20  E(vib)   ...       0.03 
freq.     938.37  E(vib)   ...       0.03 
freq.     951.01  E(vib)   ...       0.03 
freq.     956.56  E(vib)   ...       0.03 
freq.     967.51  E(vib)   ...       0.03 
freq.     978.64  E(vib)   ...       0.03 
freq.     985.46  E(vib)   ...       0.02 
freq.     991.06  E(vib)   ...       0.02 
freq.    1000.97  E(vib)   ...       0.02 
freq.    1023.13  E(vib)   ...       0.02 
freq.    1027.57  E(vib)   ...       0.02 
freq.    1040.24  E(vib)   ...       0.02 
freq.    1048.99  E(vib)   ...       0.02 
freq.    1051.18  E(vib)   ...       0.02 
freq.    1053.61  E(vib)   ...       0.02 
freq.    1063.46  E(vib)   ...       0.02 
freq.    1077.37  E(vib)   ...       0.02 
freq.    1077.56  E(vib)   ...       0.02 
freq.    1143.56  E(vib)   ...       0.01 
freq.    1155.11  E(vib)   ...       0.01 
freq.    1188.12  E(vib)   ...       0.01 
freq.    1198.98  E(vib)   ...       0.01 
freq.    1201.82  E(vib)   ...       0.01 
freq.    1209.66  E(vib)   ...       0.01 
freq.    1223.98  E(vib)   ...       0.01 
freq.    1229.65  E(vib)   ...       0.01 
freq.    1233.58  E(vib)   ...       0.01 
freq.    1266.69  E(vib)   ...       0.01 
freq.    1282.34  E(vib)   ...       0.01 
freq.    1301.07  E(vib)   ...       0.01 
freq.    1310.90  E(vib)   ...       0.01 
freq.    1331.67  E(vib)   ...       0.01 
freq.    1341.89  E(vib)   ...       0.01 
freq.    1343.36  E(vib)   ...       0.01 
freq.    1350.54  E(vib)   ...       0.01 
freq.    1364.60  E(vib)   ...       0.01 
freq.    1377.38  E(vib)   ...       0.01 
freq.    1382.59  E(vib)   ...       0.01 
freq.    1383.72  E(vib)   ...       0.00 
freq.    1392.16  E(vib)   ...       0.00 
freq.    1397.96  E(vib)   ...       0.00 
freq.    1408.54  E(vib)   ...       0.00 
freq.    1412.25  E(vib)   ...       0.00 
freq.    1415.89  E(vib)   ...       0.00 
freq.    1419.99  E(vib)   ...       0.00 
freq.    1426.35  E(vib)   ...       0.00 
freq.    1472.36  E(vib)   ...       0.00 
freq.    1484.54  E(vib)   ...       0.00 
freq.    1488.68  E(vib)   ...       0.00 
freq.    1491.03  E(vib)   ...       0.00 
freq.    1491.61  E(vib)   ...       0.00 
freq.    1492.39  E(vib)   ...       0.00 
freq.    1496.13  E(vib)   ...       0.00 
freq.    1497.91  E(vib)   ...       0.00 
freq.    1498.99  E(vib)   ...       0.00 
freq.    1501.65  E(vib)   ...       0.00 
freq.    1504.70  E(vib)   ...       0.00 
freq.    1513.75  E(vib)   ...       0.00 
freq.    1520.75  E(vib)   ...       0.00 
freq.    1525.22  E(vib)   ...       0.00 
freq.    1595.50  E(vib)   ...       0.00 
freq.    1605.49  E(vib)   ...       0.00 
freq.    1639.28  E(vib)   ...       0.00 
freq.    1647.89  E(vib)   ...       0.00 
freq.    1659.30  E(vib)   ...       0.00 
freq.    2940.99  E(vib)   ...       0.00 
freq.    2966.25  E(vib)   ...       0.00 
freq.    2973.77  E(vib)   ...       0.00 
freq.    2975.03  E(vib)   ...       0.00 
freq.    2979.14  E(vib)   ...       0.00 
freq.    2991.59  E(vib)   ...       0.00 
freq.    2997.19  E(vib)   ...       0.00 
freq.    2997.35  E(vib)   ...       0.00 
freq.    2998.79  E(vib)   ...       0.00 
freq.    3001.15  E(vib)   ...       0.00 
freq.    3014.79  E(vib)   ...       0.00 
freq.    3020.57  E(vib)   ...       0.00 
freq.    3021.00  E(vib)   ...       0.00 
freq.    3035.48  E(vib)   ...       0.00 
freq.    3043.05  E(vib)   ...       0.00 
freq.    3049.51  E(vib)   ...       0.00 
freq.    3060.27  E(vib)   ...       0.00 
freq.    3065.28  E(vib)   ...       0.00 
freq.    3074.08  E(vib)   ...       0.00 
freq.    3075.12  E(vib)   ...       0.00 
freq.    3077.32  E(vib)   ...       0.00 
freq.    3081.02  E(vib)   ...       0.00 
freq.    3091.47  E(vib)   ...       0.00 
freq.    3100.33  E(vib)   ...       0.00 
freq.    3105.12  E(vib)   ...       0.00 
freq.    3109.41  E(vib)   ...       0.00 
freq.    3121.66  E(vib)   ...       0.00 
freq.    3127.12  E(vib)   ...       0.00 
freq.    3131.91  E(vib)   ...       0.00 
freq.    3733.23  E(vib)   ...       0.00 

------------
INNER ENERGY
------------

The inner energy is: U= E(el) + E(ZPE) + E(vib) + E(rot) + E(trans)
    E(el)   - is the total energy from the electronic structure calculation
              = E(kin-el) + E(nuc-el) + E(el-el) + E(nuc-nuc)
    E(ZPE)  - the the zero temperature vibrational energy from the frequency calculation
    E(vib)  - the the finite temperature correction to E(ZPE) due to population
              of excited vibrational states
    E(rot)  - is the rotational thermal energy
    E(trans)- is the translational thermal energy

Summary of contributions to the inner energy U:
Electronic energy                ...   -854.95804641 Eh
Zero point energy                ...      0.44835991 Eh     281.35 kcal/mol
Thermal vibrational correction   ...      0.02155992 Eh      13.53 kcal/mol
Thermal rotational correction    ...      0.00141627 Eh       0.89 kcal/mol
Thermal translational correction ...      0.00141627 Eh       0.89 kcal/mol
-----------------------------------------------------------------------
Total thermal energy                   -854.48529404 Eh


Summary of corrections to the electronic energy:
(perhaps to be used in another calculation)
Total thermal correction                  0.02439246 Eh      15.31 kcal/mol
Non-thermal (ZPE) correction              0.44835991 Eh     281.35 kcal/mol
-----------------------------------------------------------------------
Total correction                          0.47275237 Eh     296.66 kcal/mol


--------
ENTHALPY
--------

The enthalpy is H = U + kB*T
                kB is Boltzmann's constant
Total thermal energy              ...   -854.48529404 Eh 
Thermal Enthalpy correction       ...      0.00094421 Eh       0.59 kcal/mol
-----------------------------------------------------------------------
Total Enthalpy                    ...   -854.48434983 Eh


Note: Only C1 symmetry has been detected, increase convergence thresholds 
      if your molecule has a higher symmetry. Symmetry factor of 1.0 is   
      used for the rotational entropy correction. 
 

Note: Rotational entropy computed according to Herzberg 
Infrared and Raman Spectra, Chapter V,1, Van Nostrand Reinhold, 1945 
Point Group:  C1, Symmetry Number:   1  
Rotational constants in cm-1:     0.027703     0.002635     0.002524 

Vibrational entropy computed according to the QRRHO of S. Grimme
Chem.Eur.J. 2012 18 9955 using a reference frequency of 100.0 cm-1


-------
ENTROPY
-------

The entropy contributions are T*S = T*(S(el)+S(vib)+S(rot)+S(trans))
     S(el)   - electronic entropy
     S(vib)  - vibrational entropy
     S(rot)  - rotational entropy
     S(trans)- translational entropy
The entropies will be listed as multiplied by the temperature to get
units of energy

Electronic entropy                ...      0.00000000 Eh      0.00 kcal/mol
Vibrational entropy               ...      0.03845288 Eh     24.13 kcal/mol
Rotational entropy                ...      0.01683136 Eh     10.56 kcal/mol
Translational entropy             ...      0.02036176 Eh     12.78 kcal/mol
-----------------------------------------------------------------------
Final entropy term                ...      0.07564600 Eh     47.47 kcal/mol

In case the symmetry of your molecule has not been determined correctly
or in case you have a reason to use a different symmetry number we print 
out the resulting rotational entropy values for sn=1,12:

 non-linear molecules -----------------------------------
|  sn= 1 | S(rot)=       0.01683136 Eh     10.56 kcal/mol|
|  sn= 2 | S(rot)=       0.01617690 Eh     10.15 kcal/mol|
|  sn= 3 | S(rot)=       0.01579407 Eh      9.91 kcal/mol|
|  sn= 4 | S(rot)=       0.01552245 Eh      9.74 kcal/mol|
|  sn= 5 | S(rot)=       0.01531176 Eh      9.61 kcal/mol|
|  sn= 6 | S(rot)=       0.01513961 Eh      9.50 kcal/mol|
|  sn= 7 | S(rot)=       0.01499407 Eh      9.41 kcal/mol|
|  sn= 8 | S(rot)=       0.01486799 Eh      9.33 kcal/mol|
|  sn= 9 | S(rot)=       0.01475678 Eh      9.26 kcal/mol|
|  sn=10 | S(rot)=       0.01465730 Eh      9.20 kcal/mol|
|  sn=11 | S(rot)=       0.01456731 Eh      9.14 kcal/mol|
|  sn=12 | S(rot)=       0.01448516 Eh      9.09 kcal/mol|
 linear molecules ---------------------------------------
|  Dinfh | S(rot)=       0.01097367 Eh      6.89 kcal/mol|
|  Cinfv | S(rot)=       0.01162813 Eh      7.30 kcal/mol|
 --------------------------------------------------------


-------------------
GIBBS FREE ENERGY
-------------------

The Gibbs free energy is G = H - T*S

Total enthalpy                    ...   -854.48434983 Eh 
Total entropy correction          ...     -0.07564600 Eh    -47.47 kcal/mol
-----------------------------------------------------------------------
Final Gibbs free energy         ...   -854.55999583 Eh

For completeness - the Gibbs free energy minus the electronic energy
G-E(el)                           ...      0.39805058 Eh    249.78 kcal/mol


Maximum memory used throughout the entire PROP-calculation: 135.4 MB

--------------------------------
SUGGESTED CITATIONS FOR THIS RUN
--------------------------------

Below you find a list of papers that are relevant to this ORCA run
We neither can nor want to force you to cite these papers, but we appreciate if you do
You receive ORCA, which is the product of decades of hard work by many enthusiastic individuals, for free
The only thing we kindly ask in return is that you cite our papers,
We deeply appreciate it, if you show your appreciation for ORCA by not just citing the generic ORCA reference.

Please note that relegating all ORCA citations to the supporting information does *not* help us.
SI sections are not indexed - citations you put there will not count into any citation statistics
But we need these citations in order to attract the funding resources that allow us to do what we are doing

Therefore, if you are a happy ORCA user, please consider citing a few of the papers listed below in the main body of your paper

In addition to the list printed below, the program has created the file m1_00_Vitamin_A-QM3_002-B97-3C-TZ.bibtex that contains the list in bibtex format
You can import this file easily into all common literature databanks and citation aid programs


List of essential papers. We consider these as the minimum necessary citations

  1. Neese,F.
     Software update: the ORCA program system, version 5.0
     WIRES Comput. Molec. Sci., 2022 12(1)e1606
     doi.org/10.1002/wcms.1606

List of papers to cite with high priority. The work reported in these papers was absolutely
necessary for this run to complete.
Our perspective: the developers of density functionals and basis sets usually get cited in chemistry papers
Good! But without the algorithms to do something with them, the functionals or basis sets would not do anything.
Hence, in our opinion, the algorithm design and method developments papers are equally worthy of getting cited

  1. Neese,F.
     An improvement of the resolution of the identity approximation for the formation of the Coulomb matrix
     J. Comp. Chem., 2003 24(14)1740-1747
     doi.org/10.1002/jcc.10318
  2. Bykov,D.; Petrenko,T.; Izsak,R.; Kossmann,S.; Becker,U.; Valeev,E.; Neese,F.
     Efficient implementation of the analytic second derivatives of Hartree-Fock and hybrid DFT energies: a detailed analysis of different approximations
     Molec. Phys., 2015 113 1961-1977
     doi.org/10.1080/00268976.2015.1025114
  3. Neese,F.
     The SHARK Integral Generation and Digestion System
     J. Comp. Chem., 2022  1-16
     doi.org/10.1002/jcc.26942
  4. Grimme,S.; Antony,J.; Ehrlich,S.; Krieg,H.
     A consistent and accurate ab initio parametrization of density functional dispersion correction (DFT-D) for the 94 elements H-Pu
     J. Chem. Phys., 2010 132 154104
     doi.org/10.1063/1.3382344
  5. Grimme,S.; Ehrlich,S.; Goerigk,L.
     Effect of the damping function in dispersion corrected density functional theory
     J. Comput. Chem., 2011 32(7)1456-1465
     doi.org/10.1002/jcc.21759

List of suggested additional citations. These are papers that are important in the 'surrounding' of 
of this run, or papers that preceded the highly important papers. If you like your results we are grateful for a citation.

  1. Neese,F.
     The ORCA program system
     WIRES Comput. Molec. Sci., 2012 2(1)73-78
     doi.org/10.1002/wcms.81
  2. Neese,F.
     Software update: the ORCA program system, version 4.0
     WIRES Comput. Molec. Sci., 2018 8(1)1-6
     doi.org/10.1002/wcms.1327
  3. Neese,F.; Wennmohs,F.; Becker,U.; Riplinger,C.
     The ORCA quantum chemistry program package
     J. Chem. Phys., 2020 152 Art. No. L224108
     doi.org/10.1063/5.0004608

List of optional additional citations

  1. Neese,F.
     Approximate second-order SCF convergence for spin unrestricted wavefunctions
     Chem. Phys. Lett., 2000 325(1-3)93-98
     doi.org/10.1016/s0009-2614(00)00662-x

Timings for individual modules:

Sum of individual times          ...      604.667 sec (=  10.078 min)
Startup calculation              ...       58.680 sec (=   0.978 min)   9.7 %
SCF iterations                   ...      115.644 sec (=   1.927 min)  19.1 %
Property integrals               ...      125.092 sec (=   2.085 min)  20.7 %
SCF Response                     ...      173.469 sec (=   2.891 min)  28.7 %
Property calculations            ...       56.301 sec (=   0.938 min)   9.3 %
SCF Gradient evaluation          ...       75.310 sec (=   1.255 min)  12.5 %
Geometry relaxation              ...        0.171 sec (=   0.003 min)   0.0 %
                             ****ORCA TERMINATED NORMALLY****
TOTAL RUN TIME: 0 days 0 hours 10 minutes 7 seconds 442 msec
