
                                 *****************
                                 * O   R   C   A *
                                 *****************

                                            #,                                       
                                            ###                                      
                                            ####                                     
                                            #####                                    
                                            ######                                   
                                           ########,                                 
                                     ,,################,,,,,                         
                               ,,#################################,,                 
                          ,,##########################################,,             
                       ,#########################################, ''#####,          
                    ,#############################################,,   '####,        
                  ,##################################################,,,,####,       
                ,###########''''           ''''###############################       
              ,#####''   ,,,,##########,,,,          '''####'''          '####       
            ,##' ,,,,###########################,,,                        '##       
           ' ,,###''''                  '''############,,,                           
         ,,##''                                '''############,,,,        ,,,,,,###''
      ,#''                                            '''#######################'''  
     '                                                          ''''####''''         
             ,#######,   #######,   ,#######,      ##                                
            ,#'     '#,  ##    ##  ,#'     '#,    #''#        ,####,   ,####,        
            ##       ##  ##   ,#'  ##            #'  '#       #'       #'  '#        
            ##       ##  #######   ##           ,######,      #####,   #    #        
            '#,     ,#'  ##    ##  '#,     ,#' ,#      #,     #,   #   #,  ,#        
             '#######'   ##     ##  '#######'  #'      '#     '####' # '####'        



                #########################################################
                #                        -***-                          #
                #          Department of theory and spectroscopy        #
                #                                                       #
                #                      Frank Neese                      #
                #                                                       #
                #     Directorship, Architecture, Infrastructure        #
                #                    SHARK, DRIVERS                     #
                #        Core code/Algorithms in most modules           #
                #                                                       #
                #        Max Planck Institute fuer Kohlenforschung      #
                #                Kaiser Wilhelm Platz 1                 #
                #                 D-45470 Muelheim/Ruhr                 #
                #                      Germany                          #
                #                                                       #
                #                  All rights reserved                  #
                #                        -***-                          #
                #########################################################


                         Program Version 6.0.1  -  RELEASE   -


 With contributions from (in alphabetic order):
[Max-Planck-Institut fuer Kohlenforschung]                               
  Daniel Aravena         : Magnetic Suceptibility                        
  Michael Atanasov       : Ab Initio Ligand Field Theory (pilot matlab implementation)
  Alexander A. Auer      : GIAO ZORA, VPT2 properties, NMR spectrum      
  Ute Becker             : All parallelization in ORCA, NUMFREQ, NUMCALC 
  Giovanni Bistoni       : ED, misc. LED, open-shell LED, HFLD           
  Martin Brehm           : Molecular dynamics                            
  Dmytro Bykov           : pre 5.0 version of the SCF Hessian            
  Marcos Casanova-Páez   : Triplet and SCS-CIS(D). UHF-(DLPNO)-IP/EA/STEOM-CCSD. UHF-CVS-IP/STEOM-CCSD   
  Vijay G. Chilkuri      : MRCI spin determinant printing, contributions to CSF-ICE 
  Pauline Colinet        : FMM embedding                                 
  Dipayan Datta          : RHF DLPNO-CCSD density                        
  Achintya Kumar Dutta   : EOM-CC, STEOM-CC                              
  Nicolas Foglia         : Exact transition moments, OPA infrastructure, MCD improvements    
  Dmitry Ganyushin       : Spin-Orbit,Spin-Spin,Magnetic field MRCI      
  Miquel Garcia-Rates    : C-PCM and meta-GGA Hessian, CCSD/C-PCM, Gaussian charge scheme 
  Tiago L. C. Gouveia    : GS-ROHF, GS-ROCIS                             
  Yang Guo               : DLPNO-NEVPT2, F12-NEVPT2, CIM, IAO-localization        
  Andreas Hansen         : Spin unrestricted coupled pair/coupled cluster methods 
  Ingolf Harden          : AUTO-CI MPn and infrastructure                
  Benjamin Helmich-Paris : MC-RPA, TRAH-(SCF,CASSCF), AVAS, COSX integrals, SCF dyn. polar. 
  Lee Huntington         : MR-EOM, pCC                                   
  Robert Izsak           : Overlap fitted RIJCOSX, COSX-SCS-MP3, EOM     
  Riya Kayal             : Wick's Theorem for AUTO-CI, AUTO-CI UHF-CCSDT 
  Emily Kempfer          : AUTO-CI, RHF CISDT and CCSDT                  
  Christian Kollmar      : KDIIS, OOCD, Brueckner-CCSD(T), CCSD density, CASPT2, CASPT2-K, improved NEVPT2 
  Axel Koslowski         : Symmetry handling                             
  Simone Kossmann        : meta-GGA functionals, TD-DFT gradient, OOMP2, (MP2 Hessian; deprecated post 5.0) 
  Lucas Lang             : DCDCAS                                        
  Marvin Lechner         : AUTO-CI (C++ implementation), FIC-MRCC        
  Spencer Leger          : CASSCF response                               
  Dagmar Lenk            : GEPOL surface, SMD, ORCA-2-JSON               
  Dimitrios Liakos       : Extrapolation schemes; Compound Job, initial MDCI parallelization 
  Dimitrios Manganas     : Further ROCIS development; embedding schemes. LFT, Crystal Embedding 
  Dimitrios Pantazis     : SARC Basis sets                               
  Anastasios Papadopoulos: AUTO-CI, single reference methods and gradients 
  Taras Petrenko         : pre 6.0 DFT Hessian and TD-DFT gradient, (ASA, deprecated), ECA, 1-Electron XAS/XES, NRVS 
  Peter Pinski           : DLPNO-MP2, DLPNO-MP2 Gradient                 
  Christoph Reimann      : Effective Core Potentials                     
  Marius Retegan         : Local ZFS, SOC                                
  Christoph Riplinger    : Optimizer, TS searches, QM/MM, DLPNO-CCSD(T), (RO)-DLPNO pert. Triples 
  Michael Roemelt        : Original ROCIS implementation                 
  Masaaki Saitow         : Open-shell DLPNO-CCSD energy and density      
  Barbara Sandhoefer     : DKH picture change effects                    
  Kantharuban Sivalingam : CASSCF convergence/infrastructure, NEVPT2 and variants, FIC-MRCI 
  Bernardo de Souza      : ESD, SOC TD-DFT                               
  Georgi L. Stoychev     : AutoAux, RI-MP2 NMR, DLPNO-MP2 response, X2C  
  Van Anh Tran           : RI-MP2 g-tensors                              
  Willem Van den Heuvel  : Paramagnetic NMR                              
  Zikuan Wang            : NOTCH, Electric field optimization            
  Frank Wennmohs         : Technical directorship and infrastructure     
  Hang Xu                : AUTO-CI-Response properties                   
                                                                         
[FACCTs GmbH]                                                            
  Markus Bursch, Miquel Garcia-Rates, Christoph Riplinger, Bernardo de Souza, Georgi L. Stoychev 
                                                                 
  APM, Basis sets (HGBS, AHGBS, def-TZVP (Ac-Lr), def2-XVPD (La-Lu)), CI-OPT, improved COSX, DLPNO-Multilevel,           
  DOCKER, DRACO, updates on ESD, GOAT, IRC, LR-CPCM, MBIS, meta-GGA TD-DFT gradient, ML-optimized integration grids, 
  MM, NACMEs, nearIR, NEB, NEB-TS, NL-DFT gradient (VV10), 2- and 3-layer-ONIOM, interface openCOSMO-RS, QMMM,   
  Crystal-QMMM, SF, symmetry and pop. for TD-DFT, r2SCAN hybrids, SOLVATOR                                   
                                                                         
[Other institutions]                                                     
  V. Asgeirsson          : NEB                                           
  Christoph Bannwarth    : sTDA-DFT, sTD-DFT, PBEh-3c, B97-3c, D3        
  Sebastian Ehlert       : rSCAN, r2SCAN, r2SCAN-3c, D4, dhf basis sets  
  Marvin Friede          : D4 for Fr, Ra, Ac-Lr                          
  Lars Goerigk           : TD-DFT with DH, B97 family of functionals     
  Stefan Grimme          : VdW corrections, initial TS optimization, DFT functionals, gCP, sTDA/sTD-DF 
  Waldemar Hujo          : DFT-NL                                        
  H. Jonsson             : NEB                                           
  Holger Kruse           : gCP                                           
  Marcel Mueller         : wB97X-3c, vDZP basis set                      
  Hagen Neugebauer       : wr2SCAN                                       
  Tobias Risthaus        : range-separated hybrid DFT                    
  Lukas Wittmann         : regularized MP2, r2SCAN double-hybrids, wr2SCAN        
                                                                         
We gratefully acknowledge several colleagues who have allowed us to      
interface, adapt or use parts of their codes:                            
  Ed Valeev, F. Pavosevic, A. Kumar             : LibInt (2-el integral package), F12 methods 
  Garnet Chan, S. Sharma, J. Yang, R. Olivares  : DMRG                   
  Ulf Ekstrom                                   : XCFun DFT Library      
  Mihaly Kallay                                 : mrcc  (arbitrary order and MRCC methods)
  Frank Weinhold                                : gennbo (NPA and NBO analysis)           
  Simon Mueller                                 : openCOSMO-RS                            
  Christopher J. Cramer and Donald G. Truhlar   : smd solvation model                     
  S Lehtola, MJT Oliveira, MAL Marques          : LibXC Library                           
  Liviu Ungur et al                             : ANISO software                          


 Your calculation uses the libint2 library for the computation of 2-el integrals
 For citations please refer to: http://libint.valeyev.net

 Your ORCA version has been built with support for libXC version: 6.2.2
 For citations please refer to: https://libxc.gitlab.io

 This ORCA versions uses:
   CBLAS   interface :  Fast vector & matrix operations
   LAPACKE interface :  Fast linear algebra routines
   SCALAPACK package :  Parallel linear algebra routines
   Shared memory     :  Shared parallel matrices
   BLAS/LAPACK       :  OpenBLAS 0.3.27  USE64BITINT DYNAMIC_ARCH NO_AFFINITY Zen SINGLE_THREADED
        Core in use  :  Zen
   Copyright (c) 2011-2014, The OpenBLAS Project


NOTE: MaxCore=6000 MB was set to SCF,MP2,MDCI,CIPSI,MRCI and CIS
      => If you want to overwrite this, your respective input block should be placed after the MaxCore statement
Your calculation utilizes the atom-pairwise dispersion correction
with the Becke-Johnson damping scheme (D3BJ)


Your calculation employs the composite approach B97-3c by Grimme and coworkers.
For the correct reference, please check the publication list of the Grimme group:
http://www.thch.uni-bonn.de/tc/index.php?section=publikationen&subsection=grimme#2017
   

XCFun DFT library Copyright 2009-2010 Ulf Ekstrom and contributors.
See http://admol.org/xcfun for more information.
This is free software; see the source code for copying conditions.
There is ABSOLUTELY NO WARRANTY; not even for MERCHANTABILITY or FITNESS FOR A PARTICULAR PURPOSE.
For details see the documentation.
Scientific users of this library should cite U. Ekstrom, L. Visscher, R. Bast, A. J. Thorvaldsen and K. Ruud;
J.Chem.Theor.Comp. 2010, DOI: 10.1021/ct100117s
XCFun Version 0.99 

================================================================================

----- Orbital basis set information -----
Your calculation utilizes the basis: def2-mTZVP
----- AuxJ basis set information -----
Your calculation utilizes the basis: def2-mTZVP/J
================================================================================
                                        WARNINGS
                       Please study these warnings very carefully!
================================================================================


WARNING: Geometry Optimization
  ===> : Switching off AutoStart
         For restart on a previous wavefunction, please use MOREAD

================================================================================
                                       INPUT FILE
================================================================================
NAME = m1_00_Vitamin_A-QM3_024-B97-3C-TZ_0_pos-B97-3C-TZ.inp
|  1> %pal nprocs 16 end
|  2> %MaxCore 6000
|  3> # put your comments here
|  4> ! B97-3C  OPT  FREQ DEFGRID3 NOTRAH
|  5> %scf MaxIter 800 end
|  6> %output
|  7> Print [P_Hirshfeld] 1
|  8> end
|  9> %geom
| 10> MaxIter 3000
| 11>  TolE 1e-6 #TolE 5e-6 Energy change (a.u.)
| 12>  TolRMSG 3e-5 #TolRMSG 1e-4 RMS gradient (a.u.)
| 13>  TolMaxG 1e-4 #TolMaxG 3e-3 Max. element of gradient (a.u.)
| 14>  TolRMSD 2e-3 #TolRMSD 2e-3 RMS displacement (a.u.)
| 15>  TolMaxD 4e-3 #TolMaxD 4e-3 Max. displacement (a.u.)
| 16> end
| 17> * xyz 0 1
| 18>  O   8.024859117311  -3.055947976948   2.071043954643
| 19>  C  -3.910095473938   1.744307218596  -0.096867959431
| 20>  C  -5.387202741125   1.437896824549   0.167652243019
| 21>  C  -5.582811733769   0.310805409868   1.156426697467
| 22>  C  -3.099032104315   0.455542824583  -0.266857181595
| 23>  C  -4.980840567330  -0.955460228564   0.587714090269
| 24>  C  -3.614375949498  -0.763626420569  -0.000891848785
| 25>  C  -3.321739632800   2.552506508295   1.065174818917
| 26>  C  -3.844707694190   2.602399093204  -1.366041285875
| 27>  C  -1.728768105492   0.643271020446  -0.725791824038
| 28>  C  -2.919212561152  -2.056084388313  -0.297887068593
| 29>  C  -0.638640045279   0.048229769337  -0.201941196051
| 30>  C   0.720574131827   0.225494245221  -0.635961584807
| 31>  C   0.987237445504   1.137034378139  -1.792431087999
| 32>  C   1.702974443337  -0.446831483650   0.027403444993
| 33>  C   3.103172009489  -0.431109181561  -0.223074786114
| 34>  C   3.995760124437  -1.142701212622   0.505537652052
| 35>  C   5.422072707656  -1.178784489486   0.311764583817
| 36>  C   6.020287981823  -0.366798666237  -0.798471237645
| 37>  C   6.176206787446  -1.930307541536   1.136304798390
| 38>  C   7.657361959518  -2.083023775440   1.094520914176
| 39>  H  -5.863475779040   1.158759939544  -0.776302401279
| 40>  H  -5.879952288441   2.351837016341   0.504632878113
| 41>  H  -6.641801159568   0.168076960562   1.374405788203
| 42>  H  -5.102150665419   0.556992095868   2.105947165067
| 43>  H  -5.642332444574  -1.370344852133  -0.180240797689
| 44>  H  -4.923145480615  -1.731587228843   1.358409058072
| 45>  H  -3.393543052152   2.012654646617   2.005479198224
| 46>  H  -2.266295542674   2.764000813286   0.893125667022
| 47>  H  -3.842905865438   3.503685486074   1.174204401011
| 48>  H  -4.544225253221   3.432318801546  -1.284543651256
| 49>  H  -2.858281338016   3.031040754509  -1.531969739640
| 50>  H  -4.115571661831   2.021388989004  -2.249215423939
| 51>  H  -1.580602171424   1.362432594557  -1.521091757967
| 52>  H  -2.534173905412  -2.524594113620   0.614702892184
| 53>  H  -2.089841807082  -1.944199759455  -0.984204431592
| 54>  H  -3.631899220102  -2.767242326544  -0.721115370200
| 55>  H  -0.776995722249  -0.616143982570   0.643846350101
| 56>  H   2.038317179268   1.188891970807  -2.054168803555
| 57>  H   0.449692750805   0.790202381802  -2.687579941054
| 58>  H   0.639645022545   2.140723955862  -1.589394724487
| 59>  H   1.387485120016  -1.073265328508   0.857426457671
| 60>  H   3.466713925894   0.171907242393  -1.045361522100
| 61>  H   3.618521946207  -1.732350782391   1.336121132430
| 62>  H   5.563316805120  -0.659045223675  -1.766622071683
| 63>  H   7.090662625920  -0.526891642398  -0.903329805878
| 64>  H   5.840464329611   0.684457846497  -0.672991777805
| 65>  H   5.702431937772  -2.422522151196   1.983862989792
| 66>  H   8.142782907414  -1.081176582649   1.485440780684
| 67>  H   8.022992880421  -2.212693747750   0.103566790289
| 68>  H   8.978782269063  -3.161855031278   2.041400051439
| 69> *
| 70> 
| 71> 
| 72> 
| 73> 
| 74>                          ****END OF INPUT****
================================================================================

                       *****************************
                       * Geometry Optimization Run *
                       *****************************

Geometry optimization settings:
Update method            Update   .... BFGS
Choice of coordinates    CoordSys .... (2022) Redundant Internals
Initial Hessian          InHess   .... Almloef's Model
Max. no of cycles        MaxIter  .... 3000

Convergence Tolerances:
Energy Change            TolE     ....  1.0000e-06 Eh
Max. Gradient            TolMAXG  ....  1.0000e-04 Eh/bohr
RMS Gradient             TolRMSG  ....  3.0000e-05 Eh/bohr
Max. Displacement        TolMAXD  ....  4.0000e-03 bohr
RMS Displacement         TolRMSD  ....  2.0000e-03 bohr
Strict Convergence                .... False

------------------------------------------------------------------------------
                        ORCA OPTIMIZATION COORDINATE SETUP
------------------------------------------------------------------------------

The optimization will be done in redundant internal coordinates (2022)
Making redundant internal coordinates   ...  (2022 redundants) done
Evaluating the initial hessian          ...  (Almloef) done
Evaluating the coordinates              ...  done
Calculating the B-matrix                .... done
Calculating the G-matrix                .... done
Diagonalizing the G-matrix              .... done
Small eigenvalue found = 1.140e-03
Small eigenvalue found = 3.618e-03
Small eigenvalue found = 5.793e-03
Small eigenvalue found = 7.506e-03
Small eigenvalue found = 1.582e-02
Small eigenvalue found = 1.867e-02
Small eigenvalue found = 2.174e-02
Small eigenvalue found = 2.884e-02
The first mode is                       ....   95
The number of degrees of freedom        ....  147

    -----------------------------------------------------------------
                    Redundant Internal Coordinates


    -----------------------------------------------------------------
         Definition                    Initial Value    Approx d2E/dq
    -----------------------------------------------------------------
      1. B(C   2,C   1)                  1.5316         0.371427   
      2. B(C   3,C   2)                  1.5120         0.399050   
      3. B(C   4,C   1)                  1.5322         0.370569   
      4. B(C   5,C   3)                  1.5130         0.397619   
      5. B(C   6,C   5)                  1.5002         0.416854   
      6. B(C   6,C   4)                  1.3501         0.723508   
      7. B(C   7,C   1)                  1.5329         0.369656   
      8. B(C   8,C   1)                  1.5334         0.368901   
      9. B(C   9,C   4)                  1.4572         0.488085   
     10. B(C  10,C   6)                  1.4973         0.421259   
     11. B(C  11,C   9)                  1.3479         0.729262   
     12. B(C  12,C  11)                  1.4378         0.524182   
     13. B(C  13,C  12)                  1.4965         0.422537   
     14. B(C  14,C  12)                  1.3628         0.690489   
     15. B(C  15,C  14)                  1.4225         0.554457   
     16. B(C  16,C  15)                  1.3542         0.712523   
     17. B(C  17,C  16)                  1.4399         0.520210   
     18. B(C  18,C  17)                  1.4999         0.417199   
     19. B(C  19,C  17)                  1.3466         0.732752   
     20. B(C  20,C  19)                  1.4896         0.433355   
     21. B(C  20,O   0)                  1.4266         0.489167   
     22. B(H  21,C   2)                  1.0935         0.355463   
     23. B(H  22,C   2)                  1.0916         0.357957   
     24. B(H  23,C   3)                  1.0906         0.359346   
     25. B(H  24,C   3)                  1.0924         0.357003   
     26. B(H  25,C   5)                  1.0952         0.353291   
     27. B(H  26,C   5)                  1.0953         0.353162   
     28. B(H  27,C   7)                  1.0866         0.364584   
     29. B(H  28,C   7)                  1.0901         0.359983   
     30. B(H  29,C   7)                  1.0901         0.360013   
     31. B(H  30,C   8)                  1.0885         0.362150   
     32. B(H  31,C   8)                  1.0883         0.362413   
     33. B(H  32,C   8)                  1.0913         0.358384   
     34. B(H  33,C   9)                  1.0824         0.370259   
     35. B(H  34,C  10)                  1.0957         0.352627   
     36. B(H  35,C  10)                  1.0823         0.370411   
     37. B(H  36,C  10)                  1.0921         0.357268   
     38. B(H  37,C  11)                  1.0844         0.367605   
     39. B(H  38,C  13)                  1.0844         0.367559   
     40. B(H  39,C  13)                  1.1002         0.346800   
     41. B(H  40,C  13)                  1.0814         0.371651   
     42. B(H  41,C  14)                  1.0867         0.364508   
     43. B(H  42,C  15)                  1.0826         0.370071   
     44. B(H  43,C  16)                  1.0862         0.365141   
     45. B(H  44,C  18)                  1.1098         0.334898   
     46. B(H  45,C  18)                  1.0873         0.363625   
     47. B(H  46,C  18)                  1.0739         0.382066   
     48. B(H  47,C  19)                  1.0886         0.361931   
     49. B(H  48,C  20)                  1.1799         0.258823   
     50. B(H  49,C  20)                  1.0642         0.395921   
     51. B(H  50,C  11)                 10.3842         0.000000   
     52. B(H  50,O   0)                  0.9602         0.519494   
     53. A(C  20,O   0,H  50)          108.0587         0.355379   
     54. A(C   2,C   1,C   7)          110.1653         0.362341   
     55. A(C   2,C   1,C   4)          111.1866         0.362493   
     56. A(C   7,C   1,C   8)          108.4233         0.361919   
     57. A(C   4,C   1,C   7)          108.9296         0.362197   
     58. A(C   4,C   1,C   8)          110.8723         0.362071   
     59. A(C   2,C   1,C   8)          107.2192         0.362214   
     60. A(C   1,C   2,H  21)          108.7858         0.323324   
     61. A(H  21,C   2,H  22)          106.4745         0.289976   
     62. A(C   1,C   2,H  22)          108.7329         0.323695   
     63. A(C   1,C   2,C   3)          112.7579         0.367115   
     64. A(C   3,C   2,H  22)          111.3348         0.327536   
     65. A(C   3,C   2,H  21)          108.5340         0.327159   
     66. A(C   2,C   3,C   5)          109.0609         0.371438   
     67. A(C   5,C   3,H  23)          110.6059         0.327551   
     68. A(H  23,C   3,H  24)          106.4415         0.290350   
     69. A(C   5,C   3,H  24)          109.8939         0.327198   
     70. A(C   2,C   3,H  24)          110.0907         0.327392   
     71. A(C   2,C   3,H  23)          110.7249         0.327745   
     72. A(C   1,C   4,C   9)          115.1090         0.379934   
     73. A(C   6,C   4,C   9)          122.5012         0.427503   
     74. A(C   1,C   4,C   6)          122.3880         0.407044   
     75. A(H  25,C   5,H  26)          104.8789         0.289086   
     76. A(C   3,C   5,H  25)          109.8953         0.326636   
     77. A(C   6,C   5,H  26)          108.5852         0.329170   
     78. A(C   3,C   5,H  26)          110.4573         0.326616   
     79. A(C   6,C   5,H  25)          108.8736         0.329190   
     80. A(C   3,C   5,C   6)          113.7573         0.374242   
     81. A(C   4,C   6,C   5)          122.7156         0.415630   
     82. A(C   5,C   6,C  10)          112.9761         0.377995   
     83. A(C   4,C   6,C  10)          124.2774         0.416408   
     84. A(H  28,C   7,H  29)          108.0231         0.290814   
     85. A(H  27,C   7,H  29)          108.3830         0.291394   
     86. A(H  27,C   7,H  28)          107.2742         0.291391   
     87. A(C   1,C   7,H  28)          110.7489         0.323741   
     88. A(C   1,C   7,H  27)          111.6351         0.324416   
     89. A(C   1,C   7,H  29)          110.6332         0.323745   
     90. A(H  30,C   8,H  32)          107.8801         0.290881   
     91. A(C   1,C   8,H  32)          111.1808         0.323396   
     92. A(H  30,C   8,H  31)          107.0753         0.291392   
     93. A(C   1,C   8,H  31)          112.6598         0.323990   
     94. A(C   1,C   8,H  30)          109.7124         0.323951   
     95. A(H  31,C   8,H  32)          108.1368         0.290914   
     96. A(C  11,C   9,H  33)          117.9138         0.364514   
     97. A(C   4,C   9,H  33)          116.4684         0.340578   
     98. A(C   4,C   9,C  11)          125.5367         0.428111   
     99. A(H  34,C  10,H  36)          105.8811         0.289525   
    100. A(C   6,C  10,H  36)          109.6316         0.330373   
    101. A(H  34,C  10,H  35)          107.6418         0.291171   
    102. A(C   6,C  10,H  35)          113.0990         0.332355   
    103. A(C   6,C  10,H  34)          111.5329         0.329660   
    104. A(H  35,C  10,H  36)          108.7614         0.291771   
    105. A(C   9,C  11,C  12)          126.3565         0.433631   
    106. A(C  12,C  11,H  37)          115.5690         0.344258   
    107. A(C   9,C  11,H  37)          118.0606         0.364066   
    108. A(C  13,C  12,C  14)          123.2456         0.413187   
    109. A(C  11,C  12,C  14)          118.2756         0.429396   
    110. A(C  11,C  12,C  13)          118.4788         0.393585   
    111. A(H  39,C  13,H  40)          106.7557         0.290563   
    112. A(H  38,C  13,H  40)          108.2086         0.293233   
    113. A(C  12,C  13,H  40)          111.2833         0.332706   
    114. A(H  38,C  13,H  39)          106.9929         0.290058   
    115. A(C  12,C  13,H  39)          110.4668         0.328918   
    116. A(C  12,C  13,H  38)          112.8530         0.332096   
    117. A(C  12,C  14,C  15)          128.1997         0.433750   
    118. A(C  15,C  14,H  41)          115.2540         0.347028   
    119. A(C  12,C  14,H  41)          116.5456         0.360166   
    120. A(C  14,C  15,C  16)          123.2454         0.436210   
    121. A(C  16,C  15,H  42)          118.6869         0.363038   
    122. A(C  14,C  15,H  42)          118.0636         0.347914   
    123. A(C  15,C  16,C  17)          126.4176         0.431235   
    124. A(C  17,C  16,H  43)          115.6790         0.343431   
    125. A(C  15,C  16,H  43)          117.8879         0.362208   
    126. A(C  18,C  17,C  19)          122.1398         0.416631   
    127. A(C  16,C  17,C  19)          119.0999         0.433411   
    128. A(C  16,C  17,C  18)          118.7585         0.392188   
    129. A(H  45,C  18,H  46)          108.6772         0.294014   
    130. A(H  44,C  18,H  46)          106.9047         0.290231   
    131. A(C  17,C  18,H  46)          112.1275         0.333531   
    132. A(H  44,C  18,H  45)          106.4063         0.287990   
    133. A(C  17,C  18,H  45)          112.5989         0.330808   
    134. A(C  17,C  18,H  44)          109.8132         0.326346   
    135. A(C  17,C  19,C  20)          126.6475         0.419461   
    136. A(C  20,C  19,H  47)          114.0934         0.332639   
    137. A(C  17,C  19,H  47)          119.0339         0.363395   
    138. A(O   0,C  20,C  19)          107.8700         0.388095   
    139. A(H  48,C  20,H  49)          105.7017         0.280367   
    140. A(C  19,C  20,H  49)          112.3488         0.337639   
    141. A(O   0,C  20,H  49)          117.7617         0.342448   
    142. A(C  19,C  20,H  48)          108.2241         0.314832   
    143. A(O   0,C  20,H  48)          104.2588         0.319201   
    144. D(C   3,C   2,C   1,C   7)    -77.5633         0.011023   
    145. D(C   3,C   2,C   1,C   8)    164.6433         0.011023   
    146. D(H  21,C   2,C   1,C   8)     44.1930         0.011023   
    147. D(C   3,C   2,C   1,C   4)     43.2997         0.011023   
    148. D(H  21,C   2,C   1,C   7)    161.9863         0.011023   
    149. D(H  21,C   2,C   1,C   4)    -77.1507         0.011023   
    150. D(C   5,C   3,C   2,H  22)    175.3465         0.012637   
    151. D(H  23,C   3,C   2,H  22)     53.4190         0.012637   
    152. D(C   5,C   3,C   2,C   1)    -62.1234         0.012637   
    153. D(H  23,C   3,C   2,C   1)    175.9490         0.012637   
    154. D(H  23,C   3,C   2,H  21)    -63.4564         0.012637   
    155. D(C   5,C   3,C   2,H  21)     58.4712         0.012637   
    156. D(C   6,C   4,C   1,C   8)   -128.7452         0.010281   
    157. D(C   6,C   4,C   1,C   7)    112.0233         0.010281   
    158. D(C   6,C   4,C   1,C   2)     -9.5635         0.010281   
    159. D(C   9,C   4,C   1,C   2)    170.9114         0.010281   
    160. D(C   9,C   4,C   1,C   7)    -67.5018         0.010281   
    161. D(H  25,C   5,C   3,C   2)    -76.3885         0.012549   
    162. D(H  25,C   5,C   3,H  23)     45.6111         0.012549   
    163. D(C   6,C   5,C   3,H  24)    -74.7996         0.012549   
    164. D(C   6,C   5,C   3,C   2)     45.9663         0.012549   
    165. D(H  25,C   5,C   3,H  24)    162.8456         0.012549   
    166. D(C   6,C   5,C   3,H  23)    167.9658         0.012549   
    167. D(C   4,C   6,C   5,H  26)   -137.3070         0.012855   
    168. D(C   4,C   6,C   5,H  25)    109.0367         0.012855   
    169. D(C   4,C   6,C   5,C   3)    -13.8794         0.012855   
    170. D(C  10,C   6,C   4,C   9)     -7.7977         0.037081   
    171. D(C  10,C   6,C   4,C   1)    172.7122         0.037081   
    172. D(C   5,C   6,C   4,C   9)    174.3689         0.037081   
    173. D(C  10,C   6,C   5,C   3)    168.0650         0.012855   
    174. D(C   5,C   6,C   4,C   1)     -5.1213         0.037081   
    175. D(C  10,C   6,C   5,H  25)    -69.0188         0.012855   
    176. D(H  28,C   7,C   1,C   8)    -63.7467         0.010925   
    177. D(H  28,C   7,C   1,C   4)     57.0000         0.010925   
    178. D(H  28,C   7,C   1,C   2)    179.2060         0.010925   
    179. D(H  27,C   7,C   1,C   8)    176.7898         0.010925   
    180. D(H  27,C   7,C   1,C   4)    -62.4635         0.010925   
    181. D(H  27,C   7,C   1,C   2)     59.7425         0.010925   
    182. D(H  31,C   8,C   1,C   7)     50.0869         0.010883   
    183. D(H  31,C   8,C   1,C   4)    -69.4485         0.010883   
    184. D(H  31,C   8,C   1,C   2)    169.0102         0.010883   
    185. D(H  30,C   8,C   1,C   7)    -69.0947         0.010883   
    186. D(H  30,C   8,C   1,C   4)    171.3699         0.010883   
    187. D(H  30,C   8,C   1,C   2)     49.8286         0.010883   
    188. D(H  33,C   9,C   4,C   6)    137.5967         0.016221   
    189. D(H  33,C   9,C   4,C   1)    -42.8787         0.016221   
    190. D(C  11,C   9,C   4,C   6)    -45.7604         0.016221   
    191. D(C  11,C   9,C   4,C   1)    133.7641         0.016221   
    192. D(H  36,C  10,C   6,C   4)   -137.2538         0.013120   
    193. D(H  35,C  10,C   6,C   5)    162.3257         0.013120   
    194. D(H  35,C  10,C   6,C   4)    -15.6945         0.013120   
    195. D(H  34,C  10,C   6,C   5)    -76.1748         0.013120   
    196. D(H  34,C  10,C   6,C   4)    105.8051         0.013120   
    197. D(H  37,C  11,C   9,H  33)    175.5030         0.041055   
    198. D(H  37,C  11,C   9,C   4)     -1.0960         0.041055   
    199. D(C  12,C  11,C   9,H  33)     -3.0686         0.041055   
    200. D(C  12,C  11,C   9,C   4)   -179.6676         0.041055   
    201. D(C  14,C  12,C  11,H  37)      0.4679         0.020329   
    202. D(C  14,C  12,C  11,C   9)    179.0706         0.020329   
    203. D(C  13,C  12,C  11,H  37)   -179.5624         0.020329   
    204. D(C  13,C  12,C  11,C   9)     -0.9597         0.020329   
    205. D(H  38,C  13,C  12,C  14)      1.0607         0.013197   
    206. D(H  38,C  13,C  12,C  11)   -178.9074         0.013197   
    207. D(H  40,C  13,C  12,C  11)     59.2162         0.013197   
    208. D(H  39,C  13,C  12,C  14)    120.7840         0.013197   
    209. D(H  39,C  13,C  12,C  11)    -59.1841         0.013197   
    210. D(H  41,C  14,C  12,C  13)    179.4799         0.033503   
    211. D(H  41,C  14,C  12,C  11)     -0.5519         0.033503   
    212. D(C  15,C  14,C  12,C  13)     -0.1970         0.033503   
    213. D(C  15,C  14,C  12,C  11)    179.7712         0.033503   
    214. D(H  42,C  15,C  14,H  41)    179.4978         0.021043   
    215. D(H  42,C  15,C  14,C  12)     -0.8217         0.021043   
    216. D(C  16,C  15,C  14,H  41)      0.2495         0.021043   
    217. D(C  16,C  15,C  14,C  12)    179.9300         0.021043   
    218. D(H  43,C  16,C  15,H  42)    179.1662         0.035866   
    219. D(H  43,C  16,C  15,C  14)     -1.5899         0.035866   
    220. D(C  17,C  16,C  15,H  42)      0.6707         0.035866   
    221. D(C  17,C  16,C  15,C  14)    179.9146         0.035866   
    222. D(C  19,C  17,C  16,H  43)      0.7574         0.018456   
    223. D(C  19,C  17,C  16,C  15)    179.2820         0.018456   
    224. D(C  18,C  17,C  16,H  43)   -178.7630         0.018456   
    225. D(C  18,C  17,C  16,C  15)     -0.2384         0.018456   
    226. D(H  46,C  18,C  17,C  16)     61.5112         0.012876   
    227. D(H  45,C  18,C  17,C  19)      4.9419         0.012876   
    228. D(H  45,C  18,C  17,C  16)   -175.5530         0.012876   
    229. D(H  44,C  18,C  17,C  19)    123.3111         0.012876   
    230. D(H  44,C  18,C  17,C  16)    -57.1839         0.012876   
    231. D(H  47,C  19,C  17,C  18)    174.1107         0.038123   
    232. D(H  47,C  19,C  17,C  16)     -5.3928         0.038123   
    233. D(C  20,C  19,C  17,C  18)     -0.0950         0.038123   
    234. D(C  20,C  19,C  17,C  16)   -179.5985         0.038123   
    235. D(H  49,C  20,C  19,C  17)    -43.6734         0.013865   
    236. D(H  48,C  20,C  19,H  47)   -101.8021         0.013865   
    237. D(H  48,C  20,C  19,C  17)     72.6491         0.013865   
    238. D(O   0,C  20,C  19,H  47)     10.4454         0.013865   
    239. D(O   0,C  20,C  19,C  17)   -175.1035         0.013865   
    240. D(H  49,C  20,O   0,H  50)     51.1360         0.018893   
    241. D(H  48,C  20,O   0,H  50)    -65.5643         0.018893   
    242. D(C  19,C  20,O   0,H  50)    179.5400         0.018893   
    -----------------------------------------------------------------

Number of atoms                         .... 51
Number of degrees of freedom            .... 242


         *************************************************************
         *                GEOMETRY OPTIMIZATION CYCLE   1            *
         *************************************************************
---------------------------------
CARTESIAN COORDINATES (ANGSTROEM)
---------------------------------
  O      8.024859   -3.055948    2.071044
  C     -3.910095    1.744307   -0.096868
  C     -5.387203    1.437897    0.167652
  C     -5.582812    0.310805    1.156427
  C     -3.099032    0.455543   -0.266857
  C     -4.980841   -0.955460    0.587714
  C     -3.614376   -0.763626   -0.000892
  C     -3.321740    2.552507    1.065175
  C     -3.844708    2.602399   -1.366041
  C     -1.728768    0.643271   -0.725792
  C     -2.919213   -2.056084   -0.297887
  C     -0.638640    0.048230   -0.201941
  C      0.720574    0.225494   -0.635962
  C      0.987237    1.137034   -1.792431
  C      1.702974   -0.446831    0.027403
  C      3.103172   -0.431109   -0.223075
  C      3.995760   -1.142701    0.505538
  C      5.422073   -1.178784    0.311765
  C      6.020288   -0.366799   -0.798471
  C      6.176207   -1.930308    1.136305
  C      7.657362   -2.083024    1.094521
  H     -5.863476    1.158760   -0.776302
  H     -5.879952    2.351837    0.504633
  H     -6.641801    0.168077    1.374406
  H     -5.102151    0.556992    2.105947
  H     -5.642332   -1.370345   -0.180241
  H     -4.923145   -1.731587    1.358409
  H     -3.393543    2.012655    2.005479
  H     -2.266296    2.764001    0.893126
  H     -3.842906    3.503685    1.174204
  H     -4.544225    3.432319   -1.284544
  H     -2.858281    3.031041   -1.531970
  H     -4.115572    2.021389   -2.249215
  H     -1.580602    1.362433   -1.521092
  H     -2.534174   -2.524594    0.614703
  H     -2.089842   -1.944200   -0.984204
  H     -3.631899   -2.767242   -0.721115
  H     -0.776996   -0.616144    0.643846
  H      2.038317    1.188892   -2.054169
  H      0.449693    0.790202   -2.687580
  H      0.639645    2.140724   -1.589395
  H      1.387485   -1.073265    0.857426
  H      3.466714    0.171907   -1.045362
  H      3.618522   -1.732351    1.336121
  H      5.563317   -0.659045   -1.766622
  H      7.090663   -0.526892   -0.903330
  H      5.840464    0.684458   -0.672992
  H      5.702432   -2.422522    1.983863
  H      8.142783   -1.081177    1.485441
  H      8.022993   -2.212694    0.103567
  H      8.978782   -3.161855    2.041400

----------------------------
CARTESIAN COORDINATES (A.U.)
----------------------------
  NO LB      ZA    FRAG     MASS         X           Y           Z
   0 O     8.0000    0    15.999   15.164786   -5.774905    3.913706
   1 C     6.0000    0    12.011   -7.389010    3.296263   -0.183054
   2 C     6.0000    0    12.011  -10.180338    2.717231    0.316817
   3 C     6.0000    0    12.011  -10.549985    0.587337    2.185330
   4 C     6.0000    0    12.011   -5.856322    0.860851   -0.504287
   5 C     6.0000    0    12.011   -9.412425   -1.805558    1.110619
   6 C     6.0000    0    12.011   -6.830181   -1.443045   -0.001685
   7 C     6.0000    0    12.011   -6.277178    4.823538    2.012889
   8 C     6.0000    0    12.011   -7.265445    4.917822   -2.581444
   9 C     6.0000    0    12.011   -3.266898    1.215606   -1.371548
  10 C     6.0000    0    12.011   -5.516512   -3.885436   -0.562925
  11 C     6.0000    0    12.011   -1.206855    0.091141   -0.381614
  12 C     6.0000    0    12.011    1.361688    0.426122   -1.201793
  13 C     6.0000    0    12.011    1.865608    2.148684   -3.387204
  14 C     6.0000    0    12.011    3.218155   -0.844389    0.051785
  15 C     6.0000    0    12.011    5.864145   -0.814678   -0.421550
  16 C     6.0000    0    12.011    7.550892   -2.159392    0.955328
  17 C     6.0000    0    12.011   10.246232   -2.227580    0.589150
  18 C     6.0000    0    12.011   11.376696   -0.693149   -1.508892
  19 C     6.0000    0    12.011   11.671339   -3.647753    2.147305
  20 C     6.0000    0    12.011   14.470317   -3.936344    2.068345
  21 H     1.0000    0     1.008  -11.080363    2.189739   -1.466999
  22 H     1.0000    0     1.008  -11.111500    4.444328    0.953618
  23 H     1.0000    0     1.008  -12.551185    0.317619    2.597251
  24 H     1.0000    0     1.008   -9.641667    1.052563    3.979663
  25 H     1.0000    0     1.008  -10.662463   -2.589576   -0.340606
  26 H     1.0000    0     1.008   -9.303397   -3.272226    2.567021
  27 H     1.0000    0     1.008   -6.412867    3.803366    3.789806
  28 H     1.0000    0     1.008   -4.282678    5.223205    1.687763
  29 H     1.0000    0     1.008   -7.262040    6.621006    2.218925
  30 H     1.0000    0     1.008   -8.587341    6.486143   -2.427436
  31 H     1.0000    0     1.008   -5.401369    5.727837   -2.895003
  32 H     1.0000    0     1.008   -7.777303    3.819872   -4.250401
  33 H     1.0000    0     1.008   -2.986905    2.574624   -2.874447
  34 H     1.0000    0     1.008   -4.788895   -4.770791    1.161620
  35 H     1.0000    0     1.008   -3.949229   -3.674005   -1.859877
  36 H     1.0000    0     1.008   -6.863295   -5.229330   -1.362711
  37 H     1.0000    0     1.008   -1.468309   -1.164343    1.216693
  38 H     1.0000    0     1.008    3.851861    2.246680   -3.881816
  39 H     1.0000    0     1.008    0.849796    1.493266   -5.078790
  40 H     1.0000    0     1.008    1.208754    4.045382   -3.003521
  41 H     1.0000    0     1.008    2.621967   -2.028178    1.620301
  42 H     1.0000    0     1.008    6.551140    0.324858   -1.975447
  43 H     1.0000    0     1.008    6.838015   -3.273669    2.524903
  44 H     1.0000    0     1.008   10.513145   -1.245415   -3.338432
  45 H     1.0000    0     1.008   13.399410   -0.995681   -1.707046
  46 H     1.0000    0     1.008   11.036878    1.293438   -1.271770
  47 H     1.0000    0     1.008   10.776035   -4.577903    3.748958
  48 H     1.0000    0     1.008   15.387630   -2.043128    2.807076
  49 H     1.0000    0     1.008   15.161259   -4.181385    0.195713
  50 H     1.0000    0     1.008   16.967440   -5.975040    3.857687

--------------------------------
INTERNAL COORDINATES (ANGSTROEM)
--------------------------------
 O      0   0   0     0.000000000000     0.00000000     0.00000000
 C      1   0   0    13.045513907267     0.00000000     0.00000000
 C      2   1   0     1.531569177628   141.26250060     0.00000000
 C      3   2   1     1.512042610782   112.75789831    11.04886472
 C      2   1   4     1.532199004200    39.16352290   301.63991269
 C      4   3   2     1.513020813434   109.06089255   297.87657120
 C      5   2   1     1.350070548286   122.38803707   138.51612865
 C      2   1   5     1.532870544561    73.55328811   153.89852526
 C      2   1   5     1.533426933233   107.72445744   258.47005046
 C      5   2   1     1.457218689156   115.10897246   318.99098115
 C      7   5   2     1.497299534319   124.27739352   172.71217884
 C     10   5   2     1.347914225249   125.53669495   133.76414033
 C     12  10   5     1.437796776847   126.35646191   180.33236279
 C     13  12  10     1.496474673556   118.47879652   359.04029405
 C     13  12  10     1.362785904138   118.27563356   179.07058507
 C     15  13  12     1.422511778264   128.19969872   179.77117597
 C     16  15  13     1.354235151909   123.24536733   179.92998142
 C     17  16  15     1.439867212590   126.41760259   179.91455529
 C     18  17  16     1.499935355494   118.75851838   359.76159841
 C     18  17  16     1.346614894285   119.09987506   179.28195490
 C      1   2   3     1.426615894847    53.10393055   161.48103536
 H      3   2   1     1.093528133020   108.78578534   250.59848084
 H      3   2   1     1.091624816034   108.73288469   135.02595705
 H      4   3   2     1.090570904707   110.72494981   175.94901871
 H      4   3   2     1.092351621678   110.09070842    58.52197190
 H      6   4   3     1.095196541481   109.89533147   283.61151150
 H      6   4   3     1.095295657341   110.45734827   168.36841383
 H      8   2   1     1.086631533378   111.63506566   280.45458708
 H      8   2   1     1.090088518926   110.74889968    39.91809189
 H      8   2   1     1.090065658381   110.63317069   159.66606853
 H      9   2   1     1.088454593511   109.71235160   212.84161471
 H      9   2   1     1.088256808722   112.65983618   332.02322509
 H      9   2   1     1.091300411570   111.18078044    93.59291598
 H     10   5   2     1.082427133161   116.46840519   317.12128416
 H     11   7   5     1.095708248409   111.53287989   105.80510471
 H     11   7   5     1.082314899017   113.09897082   344.30551659
 H     11   7   5     1.092149294847   109.63159478   222.74624558
 H     12  10   5     1.084385240032   118.06056038   358.90402275
 H     14  13  12     1.084418945054   112.85301441   181.09264264
 H     14  13  12     1.100244609897   110.46676405   300.81589798
 H     14  13  12     1.081405116428   111.28328202    59.21617313
 H     15  13  12     1.086688123009   116.54558804   359.44809255
 H     16  15  13     1.082565013623   118.06356834   359.17828346
 H     17  16  15     1.086215529313   117.88785460   358.41012139
 H     19  18  17     1.109750757657   109.81320158   302.81614764
 H     19  18  17     1.087348591333   112.59891623   184.44696332
 H     19  18  17     1.073881695673   112.12748835    61.51120828
 H     20  18  17     1.088619638790   119.03393784   354.60724043
 H     21   1   2     1.179893908955   104.25876045   110.14044128
 H     21   1   2     1.064185297628   117.76167658   226.84075441
 H      1   2   3     0.960241867762   160.78728067   173.97768108

---------------------------
INTERNAL COORDINATES (A.U.)
---------------------------
 O      0   0   0     0.000000000000     0.00000000     0.00000000
 C      1   0   0    24.652448560996     0.00000000     0.00000000
 C      2   1   0     2.894246300872   141.26250060     0.00000000
 C      3   2   1     2.857346437197   112.75789831    11.04886472
 C      2   1   4     2.895436500605    39.16352290   301.63991269
 C      4   3   2     2.859194972312   109.06089255   297.87657120
 C      5   2   1     2.551263597733   122.38803707   138.51612865
 C      2   1   5     2.896705527975    73.55328811   153.89852526
 C      2   1   5     2.897756950190   107.72445744   258.47005046
 C      5   2   1     2.753744239737   115.10897246   318.99098115
 C      7   5   2     2.829486060310   124.27739352   172.71217884
 C     10   5   2     2.547188737736   125.53669495   133.76414033
 C     12  10   5     2.717042144476   126.35646191   180.33236279
 C     13  12  10     2.827927299370   118.47879652   359.04029405
 C     13  12  10     2.575292137990   118.27563356   179.07058507
 C     15  13  12     2.688157683196   128.19969872   179.77117597
 C     16  15  13     2.559133558037   123.24536733   179.92998142
 C     17  16  15     2.720954701007   126.41760259   179.91455529
 C     18  17  16     2.834467040470   118.75851838   359.76159841
 C     18  17  16     2.544733358059   119.09987506   179.28195490
 C      1   2   3     2.695913339559    53.10393055   161.48103536
 H      3   2   1     2.066468691147   108.78578534   250.59848084
 H      3   2   1     2.062871943296   108.73288469   135.02595705
 H      4   3   2     2.060880339519   110.72494981   175.94901871
 H      4   3   2     2.064245406916   110.09070842    58.52197190
 H      6   4   3     2.069621526217   109.89533147   283.61151150
 H      6   4   3     2.069808828048   110.45734827   168.36841383
 H      8   2   1     2.053436006568   111.63506566   280.45458708
 H      8   2   1     2.059968762501   110.74889968    39.91809189
 H      8   2   1     2.059925562333   110.63317069   159.66606853
 H      9   2   1     2.056881090945   109.71235160   212.84161471
 H      9   2   1     2.056507331860   112.65983618   332.02322509
 H      9   2   1     2.062258907704   111.18078044    93.59291598
 H     10   5   2     2.045490841600   116.46840519   317.12128416
 H     11   7   5     2.070588512172   111.53287989   105.80510471
 H     11   7   5     2.045278749806   113.09897082   344.30551659
 H     11   7   5     2.063863064617   109.63159478   222.74624558
 H     12  10   5     2.049191127326   118.06056038   358.90402275
 H     14  13  12     2.049254820587   112.85301441   181.09264264
 H     14  13  12     2.079160993029   110.46676405   300.81589798
 H     14  13  12     2.043559509870   111.28328202    59.21617313
 H     15  13  12     2.053542945471   116.54558804   359.44809255
 H     16  15  13     2.045751397912   118.06356834   359.17828346
 H     17  16  15     2.052649872813   117.88785460   358.41012139
 H     19  18  17     2.097125008883   109.81320158   302.81614764
 H     19  18  17     2.054791049724   112.59891623   184.44696332
 H     19  18  17     2.029342305054   112.12748835    61.51120828
 H     20  18  17     2.057192981321   119.03393784   354.60724043
 H     21   1   2     2.229676355008   104.25876045   110.14044128
 H     21   1   2     2.011018768263   117.76167658   226.84075441
 H      1   2   3     1.814594152395   160.78728067   173.97768108

---------------------
BASIS SET INFORMATION
---------------------
There are 3 groups of distinct atoms

 Group   1 Type O   : 11s6p2d contracted to 5s3p2d pattern {62111/411/11}
 Group   2 Type C   : 11s6p1d contracted to 5s3p1d pattern {62111/411/1}
 Group   3 Type H   : 5s contracted to 3s pattern {311}

Atom   0O    basis set group =>   1
Atom   1C    basis set group =>   2
Atom   2C    basis set group =>   2
Atom   3C    basis set group =>   2
Atom   4C    basis set group =>   2
Atom   5C    basis set group =>   2
Atom   6C    basis set group =>   2
Atom   7C    basis set group =>   2
Atom   8C    basis set group =>   2
Atom   9C    basis set group =>   2
Atom  10C    basis set group =>   2
Atom  11C    basis set group =>   2
Atom  12C    basis set group =>   2
Atom  13C    basis set group =>   2
Atom  14C    basis set group =>   2
Atom  15C    basis set group =>   2
Atom  16C    basis set group =>   2
Atom  17C    basis set group =>   2
Atom  18C    basis set group =>   2
Atom  19C    basis set group =>   2
Atom  20C    basis set group =>   2
Atom  21H    basis set group =>   3
Atom  22H    basis set group =>   3
Atom  23H    basis set group =>   3
Atom  24H    basis set group =>   3
Atom  25H    basis set group =>   3
Atom  26H    basis set group =>   3
Atom  27H    basis set group =>   3
Atom  28H    basis set group =>   3
Atom  29H    basis set group =>   3
Atom  30H    basis set group =>   3
Atom  31H    basis set group =>   3
Atom  32H    basis set group =>   3
Atom  33H    basis set group =>   3
Atom  34H    basis set group =>   3
Atom  35H    basis set group =>   3
Atom  36H    basis set group =>   3
Atom  37H    basis set group =>   3
Atom  38H    basis set group =>   3
Atom  39H    basis set group =>   3
Atom  40H    basis set group =>   3
Atom  41H    basis set group =>   3
Atom  42H    basis set group =>   3
Atom  43H    basis set group =>   3
Atom  44H    basis set group =>   3
Atom  45H    basis set group =>   3
Atom  46H    basis set group =>   3
Atom  47H    basis set group =>   3
Atom  48H    basis set group =>   3
Atom  49H    basis set group =>   3
Atom  50H    basis set group =>   3
---------------------------------
AUXILIARY/J BASIS SET INFORMATION
---------------------------------
There are 3 groups of distinct atoms

 Group   1 Type O   : 8s3p3d contracted to 6s3p3d pattern {311111/111/111}
 Group   2 Type C   : 8s3p3d contracted to 6s3p3d pattern {311111/111/111}
 Group   3 Type H   : 5s2p contracted to 3s1p pattern {311/2}

Atom   0O    basis set group =>   1
Atom   1C    basis set group =>   2
Atom   2C    basis set group =>   2
Atom   3C    basis set group =>   2
Atom   4C    basis set group =>   2
Atom   5C    basis set group =>   2
Atom   6C    basis set group =>   2
Atom   7C    basis set group =>   2
Atom   8C    basis set group =>   2
Atom   9C    basis set group =>   2
Atom  10C    basis set group =>   2
Atom  11C    basis set group =>   2
Atom  12C    basis set group =>   2
Atom  13C    basis set group =>   2
Atom  14C    basis set group =>   2
Atom  15C    basis set group =>   2
Atom  16C    basis set group =>   2
Atom  17C    basis set group =>   2
Atom  18C    basis set group =>   2
Atom  19C    basis set group =>   2
Atom  20C    basis set group =>   2
Atom  21H    basis set group =>   3
Atom  22H    basis set group =>   3
Atom  23H    basis set group =>   3
Atom  24H    basis set group =>   3
Atom  25H    basis set group =>   3
Atom  26H    basis set group =>   3
Atom  27H    basis set group =>   3
Atom  28H    basis set group =>   3
Atom  29H    basis set group =>   3
Atom  30H    basis set group =>   3
Atom  31H    basis set group =>   3
Atom  32H    basis set group =>   3
Atom  33H    basis set group =>   3
Atom  34H    basis set group =>   3
Atom  35H    basis set group =>   3
Atom  36H    basis set group =>   3
Atom  37H    basis set group =>   3
Atom  38H    basis set group =>   3
Atom  39H    basis set group =>   3
Atom  40H    basis set group =>   3
Atom  41H    basis set group =>   3
Atom  42H    basis set group =>   3
Atom  43H    basis set group =>   3
Atom  44H    basis set group =>   3
Atom  45H    basis set group =>   3
Atom  46H    basis set group =>   3
Atom  47H    basis set group =>   3
Atom  48H    basis set group =>   3
Atom  49H    basis set group =>   3
Atom  50H    basis set group =>   3


           ************************************************************
           *        Program running with 16 parallel MPI-processes    *
           *              working on a common directory               *
           ************************************************************
------------------------------------------------------------------------------
                             ORCA STARTUP CALCULATIONS
                           -- RI-GTO INTEGRALS CHOSEN --
------------------------------------------------------------------------------
------------------------------------------------------------------------------
                   ___                                                        
                  /   \      - P O W E R E D   B Y -                         
                 /     \                                                     
                 |  |  |   _    _      __       _____    __    __             
                 |  |  |  | |  | |    /  \     |  _  \  |  |  /  |          
                  \  \/   | |  | |   /    \    | | | |  |  | /  /          
                 / \  \   | |__| |  /  /\  \   | |_| |  |  |/  /          
                |  |  |   |  __  | /  /__\  \  |    /   |      \           
                |  |  |   | |  | | |   __   |  |    \   |  |\   \          
                \     /   | |  | | |  |  |  |  | |\  \  |  | \   \       
                 \___/    |_|  |_| |__|  |__|  |_| \__\ |__|  \__/        
                                                                              
                      - O R C A' S   B I G   F R I E N D -                    
                                      &                                       
                       - I N T E G R A L  F E E D E R -                       
                                                                              
 v1 FN, 2020, v2 2021, v3 2022-2024                                           
------------------------------------------------------------------------------


----------------------
SHARK INTEGRAL PACKAGE
----------------------

Number of atoms                             ...     51
Number of basis functions                   ...    494
Number of shells                            ...    280
Maximum angular momentum                    ...      2
Integral batch strategy                     ... SHARK/LIBINT Hybrid
RI-J (if used) integral strategy            ... SPLIT-RIJ (Revised 2003 algorithm where possible)
Printlevel                                  ...      1
Contraction scheme used                     ... SEGMENTED contraction
Prescreening option                         ... SCHWARTZ
   Thresh                                   ... 2.500e-11
   Tcut                                     ... 2.500e-12
   Tpresel                                  ... 2.500e-12 
Coulomb Range Separation                    ... NOT USED
Exchange Range Separation                   ... NOT USED
Multipole approximations                    ... NOT USED
Finite Nucleus Model                        ... NOT USED
CABS basis                                  ... NOT available
Auxiliary Coulomb fitting basis             ... AVAILABLE
   # of basis functions in Aux-J            ...    810
   # of shells in Aux-J                     ...    372
   Maximum angular momentum in Aux-J        ...      2
Auxiliary J/K fitting basis                 ... NOT available
Auxiliary Correlation fitting basis         ... NOT available
Auxiliary 'external' fitting basis          ... NOT available

Checking pre-screening integrals            ... done (  0.0 sec) Dimension = 280
Check shell pair data                       ... done (  0.0 sec)
Shell pair information
Shell pair cut-off parameter TPreSel        ...   2.5e-12
Total number of shell pairs                 ...     39340
Shell pairs after pre-screening             ...     24217
Total number of primitive shell pairs       ...    140737
Primitive shell pairs kept                  ...     55568
          la=0 lb=0:  11209 shell pairs
          la=1 lb=0:   8233 shell pairs
          la=1 lb=1:   1500 shell pairs
          la=2 lb=0:   2288 shell pairs
          la=2 lb=1:    865 shell pairs
          la=2 lb=2:    122 shell pairs

Calculating one electron integrals          ... done (  0.0 sec)
Calculating RI/J V-Matrix + Cholesky decomp.... done (  0.0 sec)
Calculating Nuclear repulsion               ... done (  0.0 sec) ENN=   1561.465864705404 Eh

Diagonalization of the overlap matrix:
Smallest eigenvalue                        ... 2.017e-05
Time for diagonalization                   ...    0.030 sec
Threshold for overlap eigenvalues          ... 1.000e-07
Number of eigenvalues below threshold      ... 0
Time for construction of square roots      ...    0.012 sec
Total time needed                          ...    0.044 sec

-------------------
DFT GRID GENERATION
-------------------

General Integration Accuracy     IntAcc      ... 4.959
Radial Grid Type                 RadialGrid  ... OptM3 with GC (2021)
Angular Grid (max. ang.)         AngularGrid ... 6 (Lebedev-590)
Angular grid pruning method      GridPruning ... 4 (adaptive)
Weight generation scheme         WeightScheme... mBecke (2022)
Basis function cutoff            BFCut       ... 1.0000e-11
Integration weight cutoff        WCut        ... 1.0000e-14
Partially contracted basis set               ... off
Rotationally invariant grid construction     ... off
Angular grids for H and He will be reduced by one unit
Diffuse basis detected: some atoms will have their outermost
                        angular grid increased by 1.

Total number of grid points                  ...   552714
Total number of batches                      ...     8658
Average number of points per batch           ...       63
Average number of grid points per atom       ...    10838
Initializing property integral containers    ... done (  0.0 sec)

SHARK setup successfully completed in   4.0 seconds

Maximum memory used throughout the entire STARTUP-calculation: 123.7 MB


           ************************************************************
           *        Program running with 16 parallel MPI-processes    *
           *              working on a common directory               *
           ************************************************************
-------------------------------------------------------------------------------
                                 ORCA GUESS
                   Start orbitals & Density for SCF / CASSCF
-------------------------------------------------------------------------------

------------
SCF SETTINGS
------------
Hamiltonian:
 Density Functional     Method          .... DFT(GTOs)
 Exchange Functional    Exchange        .... B973C
 Correlation Functional Correlation     .... B973C
 Gradients option       PostSCFGGA      .... off
 RI-approximation to the Coulomb term is turned on
   Number of AuxJ basis functions       .... 810


General Settings:
 Integral files         IntName         .... m1_00_Vitamin_A-QM3_024-B97-3C-TZ_0_pos-B97-3C-TZ
 Hartree-Fock type      HFTyp           .... RHF
 Total Charge           Charge          ....    0
 Multiplicity           Mult            ....    1
 Number of Electrons    NEL             ....  158
 Basis Dimension        Dim             ....  494
 Nuclear Repulsion      ENuc            ....   1561.4658647054 Eh

Convergence Acceleration:
 AO-DIIS                CNVDIIS         .... on
   Start iteration      DIISMaxIt       ....    12
   Startup error        DIISStart       ....  0.200000
   # of expansion vecs  DIISMaxEq       ....     5
   Bias factor          DIISBfac        ....   1.050
   Max. coefficient     DIISMaxC        ....  10.000
 MO-DIIS                CNVKDIIS        .... off
 Trust-Rad. Augm. Hess. CNVTRAH         .... off
 SOSCF                  CNVSOSCF        .... on
   Start iteration      SOSCFMaxIt      ....   150
   Startup grad/error   SOSCFStart      ....  0.003300
   Hessian update       SOSCFHessUp     .... L-BFGS
 Level Shifting         CNVShift        .... on
   Level shift para.    LevelShift      ....    0.2500
   Turn off err/grad.   ShiftErr        ....    0.0010
 Zerner damping         CNVZerner       .... off
 Static damping         CNVDamp         .... on
   Fraction old density DampFac         ....    0.7000
   Max. Damping (<1)    DampMax         ....    0.9800
   Min. Damping (>=0)   DampMin         ....    0.0000
   Turn off err/grad.   DampErr         ....    0.1000

SCF Procedure:
 Maximum # iterations   MaxIter         ....   800
 SCF integral mode      SCFMode         .... Direct
   Integral package                     .... SHARK and LIBINT hybrid scheme
 Reset frequency        DirectResetFreq ....    20
 Integral Threshold     Thresh          ....  2.500e-11 Eh
 Primitive CutOff       TCut            ....  2.500e-12 Eh

Convergence Tolerance:
 Convergence Check Mode ConvCheckMode   .... Total+1el-Energy
 Convergence forced     ConvForced      .... 0
 Energy Change          TolE            ....  1.000e-08 Eh
 1-El. energy change                    ....  1.000e-05 Eh
 Orbital Gradient       TolG            ....  1.000e-05
 Orbital Rotation angle TolX            ....  1.000e-05
 DIIS Error             TolErr          ....  5.000e-07

--------------------------------
INITIAL GUESS: MINIMAL BASIS EHT
--------------------------------
The minimal basis has 135 functions
EHT matrix was diagonalized
Basis set overlap was calculated now projecting the orbitals
Using GuessMode=FMatrix for the initial guess
C*T matrix was formed
Effective Fockian was calculated
Effective Fockian was diagonalized
Initial density was built
                      ------------------
                      INITIAL GUESS DONE
                      ------------------
             **** ENERGY FILE WAS UPDATED (m1_00_Vitamin_A-QM3_024-B97-3C-TZ_0_pos-B97-3C-TZ.en.tmp) ****
Finished Guess after   0.3 sec
Maximum memory used throughout the entire GUESS-calculation: 41.4 MB


           ************************************************************
           *        Program running with 16 parallel MPI-processes    *
           *              working on a common directory               *
           ************************************************************

-------------------------------------------------------------------------------------------
                                      ORCA LEAN-SCF
                              memory conserving SCF solver
-------------------------------------------------------------------------------------------

----------------------------------------D-I-I-S--------------------------------------------
Iteration    Energy (Eh)           Delta-E    RMSDP     MaxDP     DIISErr   Damp  Time(sec)
-------------------------------------------------------------------------------------------
               ***  Starting incremental Fock matrix formation  ***
    1    -852.6616576716171494     0.00e+00  4.04e-03  1.23e-01  4.68e-01  0.700   0.8
Warning: op=0 Small HOMO/LUMO gap (   0.077) - skipping pre-diagonalization
         Will do a full diagonalization
    2    -853.2866769117288186    -6.25e-01  3.92e-03  3.33e-01  3.30e-01  0.700   0.8
    3    -853.7057910579399049    -4.19e-01  2.35e-03  9.01e-02  2.30e-01  0.700   0.7
                               ***Turning on AO-DIIS***
    4    -853.9971030002768657    -2.91e-01  1.76e-03  1.15e-01  1.61e-01  0.700   0.8
    5    -854.1973655419594706    -2.00e-01  1.24e-03  7.18e-02  1.12e-01  0.700   0.7
    6    -854.3415171801864290    -1.44e-01  8.57e-04  3.82e-02  7.86e-02  0.700   0.7
    7    -854.4434438335672439    -1.02e-01  2.00e-03  8.53e-02  5.51e-02  0.000   0.7
    8    -854.6793488923560744    -2.36e-01  3.85e-04  4.89e-02  2.14e-02  0.000   0.7
    9    -854.6798278742151069    -4.79e-04  5.51e-05  3.66e-03  1.41e-02  0.000   0.7
                              *** Initializing SOSCF ***
---------------------------------------S-O-S-C-F--------------------------------------
Iteration    Energy (Eh)           Delta-E    RMSDP     MaxDP     MaxGrad    Time(sec)
--------------------------------------------------------------------------------------
   10    -854.6800686886892890    -2.41e-04  3.70e-05  3.63e-03  2.32e-03     0.8
               *** Restarting incremental Fock matrix formation ***
   11    -854.6800835418546285    -1.49e-05  4.99e-05  7.30e-03  1.23e-04     0.8
   12    -854.6800807151664685     2.83e-06  2.71e-05  3.89e-03  2.56e-04     0.6
   13    -854.6800846814192028    -3.97e-06  8.67e-06  6.48e-04  7.81e-06     0.6
   14    -854.6800846759344950     5.48e-09  2.34e-06  1.55e-04  2.23e-05     0.6
                 **** Energy Check signals convergence ****

               *****************************************************
               *                     SUCCESS                       *
               *           SCF CONVERGED AFTER  14 CYCLES          *
               *****************************************************

             **** ENERGY FILE WAS UPDATED (m1_00_Vitamin_A-QM3_024-B97-3C-TZ_0_pos-B97-3C-TZ.en.tmp) ****

----------------
TOTAL SCF ENERGY
----------------

Total Energy       :       -854.68008467593449 Eh          -23257.02747 eV

Components:
Nuclear Repulsion  :       1561.46586470540365 Eh           42489.64631 eV
Electronic Energy  :      -2416.14594938133814 Eh          -65746.67378 eV
One Electron Energy:      -4257.37535773467425 Eh         -115849.07314 eV
Two Electron Energy:       1841.22940835333611 Eh           50102.39936 eV

Virial components:
Potential Energy   :      -1706.16067064208164 Eh          -46426.99215 eV
Kinetic Energy     :        851.48058596614726 Eh           23169.96468 eV
Virial Ratio       :          2.00375757094468

DFT components:
N(Alpha)           :       78.999995886580 electrons
N(Beta)            :       78.999995886580 electrons
N(Total)           :      157.999991773160 electrons
E(XC)              :     -127.721612765750 Eh       

---------------
SCF CONVERGENCE
---------------

  Last Energy change         ...   -5.4847e-09  Tolerance :   1.0000e-08
  Last MAX-Density change    ...    1.5508e-04  Tolerance :   1.0000e-07
  Last RMS-Density change    ...    2.3382e-06  Tolerance :   5.0000e-09
  Last DIIS Error            ...    2.3183e-03  Tolerance :   5.0000e-07
  Last Orbital Gradient      ...    2.2324e-05  Tolerance :   1.0000e-05
  Last Orbital Rotation      ...    3.8258e-05  Tolerance :   1.0000e-05


----------------
ORBITAL ENERGIES
----------------

  NO   OCC          E(Eh)            E(eV) 
   0   2.0000     -18.748284      -510.1667 
   1   2.0000      -9.949417      -270.7374 
   2   2.0000      -9.899779      -269.3867 
   3   2.0000      -9.898617      -269.3551 
   4   2.0000      -9.897240      -269.3176 
   5   2.0000      -9.889795      -269.1150 
   6   2.0000      -9.889575      -269.1090 
   7   2.0000      -9.889316      -269.1020 
   8   2.0000      -9.888106      -269.0691 
   9   2.0000      -9.887944      -269.0646 
  10   2.0000      -9.886734      -269.0317 
  11   2.0000      -9.883847      -268.9532 
  12   2.0000      -9.883240      -268.9366 
  13   2.0000      -9.882941      -268.9285 
  14   2.0000      -9.882579      -268.9186 
  15   2.0000      -9.881384      -268.8861 
  16   2.0000      -9.878290      -268.8019 
  17   2.0000      -9.876717      -268.7591 
  18   2.0000      -9.874277      -268.6927 
  19   2.0000      -9.873976      -268.6846 
  20   2.0000      -9.869586      -268.5651 
  21   2.0000      -0.945020       -25.7153 
  22   2.0000      -0.781195       -21.2574 
  23   2.0000      -0.764707       -20.8087 
  24   2.0000      -0.750579       -20.4243 
  25   2.0000      -0.719037       -19.5660 
  26   2.0000      -0.713107       -19.4046 
  27   2.0000      -0.693473       -18.8703 
  28   2.0000      -0.663008       -18.0414 
  29   2.0000      -0.653209       -17.7747 
  30   2.0000      -0.628859       -17.1121 
  31   2.0000      -0.619380       -16.8542 
  32   2.0000      -0.617800       -16.8112 
  33   2.0000      -0.609827       -16.5942 
  34   2.0000      -0.597368       -16.2552 
  35   2.0000      -0.557041       -15.1579 
  36   2.0000      -0.529925       -14.4200 
  37   2.0000      -0.510636       -13.8951 
  38   2.0000      -0.495485       -13.4828 
  39   2.0000      -0.489615       -13.3231 
  40   2.0000      -0.480206       -13.0671 
  41   2.0000      -0.460474       -12.5301 
  42   2.0000      -0.443474       -12.0675 
  43   2.0000      -0.432813       -11.7774 
  44   2.0000      -0.420113       -11.4319 
  45   2.0000      -0.413257       -11.2453 
  46   2.0000      -0.403383       -10.9766 
  47   2.0000      -0.400628       -10.9017 
  48   2.0000      -0.399038       -10.8584 
  49   2.0000      -0.387435       -10.5427 
  50   2.0000      -0.378059       -10.2875 
  51   2.0000      -0.377619       -10.2755 
  52   2.0000      -0.375455       -10.2166 
  53   2.0000      -0.374517       -10.1911 
  54   2.0000      -0.373494       -10.1633 
  55   2.0000      -0.353741        -9.6258 
  56   2.0000      -0.351534        -9.5657 
  57   2.0000      -0.348939        -9.4951 
  58   2.0000      -0.346764        -9.4359 
  59   2.0000      -0.341082        -9.2813 
  60   2.0000      -0.336345        -9.1524 
  61   2.0000      -0.326933        -8.8963 
  62   2.0000      -0.323442        -8.8013 
  63   2.0000      -0.322107        -8.7650 
  64   2.0000      -0.313037        -8.5182 
  65   2.0000      -0.307765        -8.3747 
  66   2.0000      -0.304173        -8.2770 
  67   2.0000      -0.300333        -8.1725 
  68   2.0000      -0.297198        -8.0872 
  69   2.0000      -0.294345        -8.0095 
  70   2.0000      -0.291229        -7.9247 
  71   2.0000      -0.277595        -7.5537 
  72   2.0000      -0.271365        -7.3842 
  73   2.0000      -0.261117        -7.1053 
  74   2.0000      -0.254689        -6.9304 
  75   2.0000      -0.238788        -6.4978 
  76   2.0000      -0.222594        -6.0571 
  77   2.0000      -0.197115        -5.3638 
  78   2.0000      -0.160869        -4.3775 
  79   0.0000      -0.080060        -2.1785 
  80   0.0000      -0.024798        -0.6748 
  81   0.0000       0.007857         0.2138 
  82   0.0000       0.013709         0.3730 
  83   0.0000       0.021879         0.5954 
  84   0.0000       0.028748         0.7823 
  85   0.0000       0.036891         1.0039 
  86   0.0000       0.039879         1.0852 
  87   0.0000       0.045342         1.2338 
  88   0.0000       0.050659         1.3785 
  89   0.0000       0.054494         1.4829 
*Only the first 10 virtual orbitals were printed.

                    ********************************
                    * MULLIKEN POPULATION ANALYSIS *
                    ********************************

-----------------------
MULLIKEN ATOMIC CHARGES
-----------------------
   0 O :   -0.574196
   1 C :    0.051672
   2 C :   -0.317588
   3 C :   -0.346049
   4 C :    0.275884
   5 C :   -0.326412
   6 C :    0.015097
   7 C :   -0.556365
   8 C :   -0.534646
   9 C :   -0.403138
  10 C :   -0.606440
  11 C :   -0.305172
  12 C :    0.286077
  13 C :   -0.593019
  14 C :   -0.230611
  15 C :   -0.089465
  16 C :   -0.310518
  17 C :    0.247634
  18 C :   -0.604944
  19 C :   -0.211899
  20 C :   -0.244638
  21 H :    0.170017
  22 H :    0.175464
  23 H :    0.173440
  24 H :    0.161751
  25 H :    0.166450
  26 H :    0.175060
  27 H :    0.169301
  28 H :    0.182683
  29 H :    0.167282
  30 H :    0.175720
  31 H :    0.167556
  32 H :    0.177357
  33 H :    0.187637
  34 H :    0.173024
  35 H :    0.214786
  36 H :    0.162538
  37 H :    0.162079
  38 H :    0.175634
  39 H :    0.179144
  40 H :    0.181707
  41 H :    0.131272
  42 H :    0.149270
  43 H :    0.137845
  44 H :    0.175723
  45 H :    0.182891
  46 H :    0.192316
  47 H :    0.168497
  48 H :    0.129497
  49 H :    0.182850
  50 H :    0.429943
Sum of atomic charges:    0.0000000

--------------------------------
MULLIKEN REDUCED ORBITAL CHARGES
--------------------------------
  0 O s       :     3.819905  s :     3.819905
      pz      :     1.642797  p :     4.717016
      px      :     1.407801
      py      :     1.666418
      dz2     :     0.005920  d :     0.037276
      dxz     :     0.001577
      dyz     :     0.005226
      dx2y2   :     0.021359
      dxy     :     0.003194

  1 C s       :     2.926793  s :     2.926793
      pz      :     0.955104  p :     2.964746
      px      :     1.019653
      py      :     0.989989
      dz2     :     0.011704  d :     0.056789
      dxz     :     0.008528
      dyz     :     0.013470
      dx2y2   :     0.010985
      dxy     :     0.012101

  2 C s       :     3.168027  s :     3.168027
      pz      :     1.049302  p :     3.103934
      px      :     0.972884
      py      :     1.081748
      dz2     :     0.008955  d :     0.045627
      dxz     :     0.009114
      dyz     :     0.008749
      dx2y2   :     0.009431
      dxy     :     0.009378

  3 C s       :     3.202587  s :     3.202587
      pz      :     1.011520  p :     3.098147
      px      :     1.145375
      py      :     0.941252
      dz2     :     0.009404  d :     0.045315
      dxz     :     0.007232
      dyz     :     0.010422
      dx2y2   :     0.012030
      dxy     :     0.006226

  4 C s       :     3.111049  s :     3.111049
      pz      :     0.921891  p :     2.564770
      px      :     0.825519
      py      :     0.817360
      dz2     :     0.003976  d :     0.048297
      dxz     :     0.005614
      dyz     :     0.008275
      dx2y2   :     0.015476
      dxy     :     0.014956

  5 C s       :     3.139971  s :     3.139971
      pz      :     1.099834  p :     3.139828
      px      :     0.978225
      py      :     1.061769
      dz2     :     0.004506  d :     0.046613
      dxz     :     0.010834
      dyz     :     0.013068
      dx2y2   :     0.010466
      dxy     :     0.007739

  6 C s       :     3.182462  s :     3.182462
      pz      :     0.961808  p :     2.755010
      px      :     0.968330
      py      :     0.824872
      dz2     :     0.003988  d :     0.047431
      dxz     :     0.005790
      dyz     :     0.009390
      dx2y2   :     0.014479
      dxy     :     0.013783

  7 C s       :     3.261684  s :     3.261684
      pz      :     1.041082  p :     3.256796
      px      :     1.119836
      py      :     1.095878
      dz2     :     0.010600  d :     0.037885
      dxz     :     0.003170
      dyz     :     0.008672
      dx2y2   :     0.008610
      dxy     :     0.006834

  8 C s       :     3.255995  s :     3.255995
      pz      :     1.009042  p :     3.240583
      px      :     1.133158
      py      :     1.098383
      dz2     :     0.009945  d :     0.038067
      dxz     :     0.003622
      dyz     :     0.009463
      dx2y2   :     0.004235
      dxy     :     0.010802

  9 C s       :     3.304104  s :     3.304104
      pz      :     0.967477  p :     3.057282
      px      :     1.054136
      py      :     1.035669
      dz2     :     0.005068  d :     0.041751
      dxz     :     0.010105
      dyz     :     0.007409
      dx2y2   :     0.010545
      dxy     :     0.008625

 10 C s       :     3.318108  s :     3.318108
      pz      :     1.126243  p :     3.249768
      px      :     1.103000
      py      :     1.020524
      dz2     :     0.004607  d :     0.038565
      dxz     :     0.009932
      dyz     :     0.008170
      dx2y2   :     0.005714
      dxy     :     0.010141

 11 C s       :     3.298615  s :     3.298615
      pz      :     0.950488  p :     2.963645
      px      :     1.046661
      py      :     0.966496
      dz2     :     0.006052  d :     0.042913
      dxz     :     0.010182
      dyz     :     0.007123
      dx2y2   :     0.010365
      dxy     :     0.009191

 12 C s       :     3.164056  s :     3.164056
      pz      :     0.746803  p :     2.500563
      px      :     0.936327
      py      :     0.817433
      dz2     :     0.008911  d :     0.049305
      dxz     :     0.012609
      dyz     :     0.006559
      dx2y2   :     0.010921
      dxy     :     0.010304

 13 C s       :     3.277597  s :     3.277597
      pz      :     1.031505  p :     3.277350
      px      :     1.179279
      py      :     1.066565
      dz2     :     0.008785  d :     0.038072
      dxz     :     0.007293
      dyz     :     0.007484
      dx2y2   :     0.010531
      dxy     :     0.003980

 14 C s       :     3.267544  s :     3.267544
      pz      :     0.912479  p :     2.920655
      px      :     1.049537
      py      :     0.958639
      dz2     :     0.005991  d :     0.042413
      dxz     :     0.010537
      dyz     :     0.006520
      dx2y2   :     0.009769
      dxy     :     0.009596

 15 C s       :     3.052390  s :     3.052390
      pz      :     0.962689  p :     2.994923
      px      :     1.024708
      py      :     1.007526
      dz2     :     0.006173  d :     0.042152
      dxz     :     0.010768
      dyz     :     0.006555
      dx2y2   :     0.009247
      dxy     :     0.009410

 16 C s       :     3.323685  s :     3.323685
      pz      :     0.947523  p :     2.944649
      px      :     0.998131
      py      :     0.998995
      dz2     :     0.006460  d :     0.042184
      dxz     :     0.010630
      dyz     :     0.006338
      dx2y2   :     0.009458
      dxy     :     0.009298

 17 C s       :     3.115420  s :     3.115420
      pz      :     0.810198  p :     2.586992
      px      :     0.914693
      py      :     0.862102
      dz2     :     0.009965  d :     0.049954
      dxz     :     0.012074
      dyz     :     0.006650
      dx2y2   :     0.011559
      dxy     :     0.009707

 18 C s       :     3.301787  s :     3.301787
      pz      :     1.037126  p :     3.265265
      px      :     1.140181
      py      :     1.087958
      dz2     :     0.010548  d :     0.037891
      dxz     :     0.006312
      dyz     :     0.005617
      dx2y2   :     0.012309
      dxy     :     0.003105

 19 C s       :     3.227478  s :     3.227478
      pz      :     0.959503  p :     2.945859
      px      :     0.987382
      py      :     0.998975
      dz2     :     0.006990  d :     0.038561
      dxz     :     0.009872
      dyz     :     0.005803
      dx2y2   :     0.008423
      dxy     :     0.007474

[...]
114:   1504.81   0.001840    9.30  0.000382  (-0.013148  0.000059  0.014446)
115:   1509.67   0.001448    7.32  0.000299  (-0.016815  0.001373  0.003832)
116:   1513.84   0.000858    4.34  0.000177  (-0.008321 -0.009809 -0.003393)
117:   1520.90   0.001439    7.27  0.000295  (-0.011663  0.011984 -0.003964)
118:   1600.06   0.001915    9.68  0.000373  (-0.011656  0.012268 -0.009331)
119:   1609.23   0.001372    6.93  0.000266  (-0.014874  0.001349 -0.006560)
120:   1644.80   0.002184   11.04  0.000414  ( 0.018763  0.006670 -0.004226)
121:   1659.66   0.002695   13.62  0.000507  (-0.022220  0.001452  0.003311)
122:   1662.61   0.000967    4.89  0.000182  ( 0.008423 -0.008141  0.006661)
123:   2898.61   0.016771   84.75  0.001806  (-0.029456 -0.021809 -0.021500)
124:   2940.30   0.011475   57.99  0.001218  ( 0.025951  0.021847  0.008193)
125:   2973.44   0.007727   39.05  0.000811  ( 0.015501  0.023818  0.001849)
126:   2974.53   0.008186   41.37  0.000859  (-0.022289  0.009986 -0.016194)
127:   2978.66   0.008024   40.55  0.000841  (-0.005100 -0.027582  0.007336)
128:   2983.73   0.008296   41.92  0.000868  (-0.017694 -0.009210  0.021673)
129:   2991.11   0.004668   23.59  0.000487  (-0.004644 -0.012647 -0.017479)
130:   2996.06   0.009422   47.62  0.000981  ( 0.015081 -0.019633  0.019197)
131:   2996.77   0.013315   67.29  0.001387  ( 0.003079  0.027307 -0.025128)
132:   2998.32   0.008329   42.09  0.000867  (-0.023042  0.003738  0.017944)
133:   3001.40   0.006171   31.19  0.000642  ( 0.008833  0.015211 -0.018227)
134:   3014.10   0.007818   39.51  0.000809  ( 0.020279  0.009112  0.017754)
135:   3020.21   0.016955   85.68  0.001752  (-0.031144  0.020672  0.018830)
136:   3034.79   0.013253   66.97  0.001363  (-0.029036 -0.014404 -0.017668)
137:   3041.52   0.003689   18.64  0.000378  ( 0.002708  0.014126  0.013099)
138:   3050.48   0.003787   19.14  0.000387  ( 0.002014  0.013686  0.014001)
139:   3059.71   0.002895   14.63  0.000295  (-0.005739  0.009613  0.013036)
140:   3064.80   0.019174   96.90  0.001952  ( 0.032847 -0.029540  0.000858)
141:   3074.06   0.004562   23.05  0.000463  ( 0.011109  0.003769  0.018041)
142:   3075.37   0.001152    5.82  0.000117  (-0.006302 -0.004421  0.007592)
143:   3077.23   0.010239   51.75  0.001038  (-0.028742 -0.011713  0.008665)
144:   3084.74   0.001792    9.06  0.000181  ( 0.005859  0.006995 -0.009901)
145:   3098.08   0.004025   20.34  0.000405  ( 0.006979  0.010128 -0.015941)
146:   3099.96   0.005431   27.45  0.000547  (-0.016545 -0.005304  0.015649)
147:   3105.12   0.000524    2.65  0.000053  (-0.005901  0.001691  0.003871)
148:   3107.25   0.004416   22.31  0.000443  ( 0.020790 -0.002519 -0.002210)
149:   3108.09   0.006469   32.69  0.000649  (-0.025136 -0.000731  0.004139)
150:   3120.83   0.006093   30.79  0.000609  (-0.014048 -0.014271  0.014432)
151:   3130.76   0.008225   41.57  0.000820  ( 0.022606  0.009009 -0.015087)
152:   3747.29   0.000982    4.96  0.000082  ( 0.007024 -0.005370  0.001906)

* The epsilon (eps) is given for a Dirac delta lineshape.
** The dipole moment derivative (T) already includes vibrational overlap.

The first frequency considered to be a vibration is 6
The total number of vibrations considered is 147


--------------------------
THERMOCHEMISTRY AT 298.15K
--------------------------

Temperature         ...   298.15 K
Pressure            ...     1.00 atm
Total Mass          ...   286.46 AMU
Quasi RRHO          ...     True
Cut-Off Frequency   ...     1.00 cm^-1

Throughout the following assumptions are being made:
  (1) The electronic state is orbitally nondegenerate
  (2) There are no thermally accessible electronically excited states
  (3) Hindered rotations indicated by low frequency modes are not
      treated as such but are treated as vibrations and this may
      cause some error
  (4) All equations used are the standard statistical mechanics
      equations for an ideal gas
  (5) All vibrations are strictly harmonic

freq.      16.71  E(vib)   ...       0.57 
freq.      27.27  E(vib)   ...       0.55 
freq.      31.70  E(vib)   ...       0.55 
freq.      41.65  E(vib)   ...       0.53 
freq.      55.56  E(vib)   ...       0.52 
freq.      59.76  E(vib)   ...       0.51 
freq.      78.85  E(vib)   ...       0.49 
freq.     101.79  E(vib)   ...       0.46 
freq.     116.95  E(vib)   ...       0.44 
freq.     136.44  E(vib)   ...       0.42 
freq.     153.66  E(vib)   ...       0.40 
freq.     159.91  E(vib)   ...       0.39 
freq.     171.79  E(vib)   ...       0.38 
freq.     183.25  E(vib)   ...       0.37 
freq.     199.54  E(vib)   ...       0.35 
freq.     224.94  E(vib)   ...       0.33 
freq.     236.02  E(vib)   ...       0.32 
freq.     245.53  E(vib)   ...       0.31 
freq.     255.74  E(vib)   ...       0.30 
freq.     265.92  E(vib)   ...       0.29 
freq.     270.68  E(vib)   ...       0.29 
freq.     281.33  E(vib)   ...       0.28 
freq.     290.80  E(vib)   ...       0.27 
freq.     316.65  E(vib)   ...       0.25 
freq.     319.40  E(vib)   ...       0.25 
freq.     347.73  E(vib)   ...       0.23 
freq.     360.22  E(vib)   ...       0.22 
freq.     372.96  E(vib)   ...       0.21 
freq.     377.32  E(vib)   ...       0.21 
freq.     403.69  E(vib)   ...       0.19 
freq.     412.82  E(vib)   ...       0.19 
freq.     428.73  E(vib)   ...       0.18 
freq.     472.68  E(vib)   ...       0.15 
freq.     478.49  E(vib)   ...       0.15 
freq.     492.75  E(vib)   ...       0.14 
freq.     514.98  E(vib)   ...       0.13 
freq.     525.45  E(vib)   ...       0.13 
freq.     538.27  E(vib)   ...       0.12 
freq.     580.66  E(vib)   ...       0.11 
freq.     606.92  E(vib)   ...       0.10 
freq.     624.28  E(vib)   ...       0.09 
freq.     665.30  E(vib)   ...       0.08 
freq.     734.16  E(vib)   ...       0.06 
freq.     794.85  E(vib)   ...       0.05 
freq.     800.06  E(vib)   ...       0.05 
freq.     833.04  E(vib)   ...       0.04 
freq.     852.74  E(vib)   ...       0.04 
freq.     855.66  E(vib)   ...       0.04 
freq.     866.55  E(vib)   ...       0.04 
freq.     883.60  E(vib)   ...       0.04 
freq.     891.97  E(vib)   ...       0.03 
freq.     898.61  E(vib)   ...       0.03 
freq.     912.96  E(vib)   ...       0.03 
freq.     938.26  E(vib)   ...       0.03 
freq.     950.89  E(vib)   ...       0.03 
freq.     965.26  E(vib)   ...       0.03 
freq.     972.47  E(vib)   ...       0.03 
freq.     979.02  E(vib)   ...       0.03 
freq.     991.09  E(vib)   ...       0.02 
freq.    1000.92  E(vib)   ...       0.02 
freq.    1008.70  E(vib)   ...       0.02 
freq.    1023.08  E(vib)   ...       0.02 
freq.    1027.18  E(vib)   ...       0.02 
freq.    1039.79  E(vib)   ...       0.02 
freq.    1049.24  E(vib)   ...       0.02 
freq.    1050.41  E(vib)   ...       0.02 
freq.    1053.69  E(vib)   ...       0.02 
freq.    1063.55  E(vib)   ...       0.02 
freq.    1077.44  E(vib)   ...       0.02 
freq.    1087.33  E(vib)   ...       0.02 
freq.    1143.35  E(vib)   ...       0.01 
freq.    1155.03  E(vib)   ...       0.01 
freq.    1188.37  E(vib)   ...       0.01 
freq.    1199.88  E(vib)   ...       0.01 
freq.    1201.90  E(vib)   ...       0.01 
freq.    1223.82  E(vib)   ...       0.01 
freq.    1226.46  E(vib)   ...       0.01 
freq.    1229.37  E(vib)   ...       0.01 
freq.    1233.44  E(vib)   ...       0.01 
freq.    1236.87  E(vib)   ...       0.01 
freq.    1282.01  E(vib)   ...       0.01 
freq.    1283.26  E(vib)   ...       0.01 
freq.    1300.83  E(vib)   ...       0.01 
freq.    1310.70  E(vib)   ...       0.01 
freq.    1332.31  E(vib)   ...       0.01 
freq.    1341.99  E(vib)   ...       0.01 
freq.    1348.25  E(vib)   ...       0.01 
freq.    1364.41  E(vib)   ...       0.01 
freq.    1376.01  E(vib)   ...       0.01 
freq.    1377.24  E(vib)   ...       0.01 
freq.    1382.72  E(vib)   ...       0.01 
freq.    1391.92  E(vib)   ...       0.00 
freq.    1396.99  E(vib)   ...       0.00 
freq.    1408.24  E(vib)   ...       0.00 
freq.    1415.66  E(vib)   ...       0.00 
freq.    1417.98  E(vib)   ...       0.00 
freq.    1423.65  E(vib)   ...       0.00 
freq.    1439.51  E(vib)   ...       0.00 
freq.    1472.63  E(vib)   ...       0.00 
freq.    1484.42  E(vib)   ...       0.00 
freq.    1490.65  E(vib)   ...       0.00 
freq.    1491.52  E(vib)   ...       0.00 
freq.    1492.11  E(vib)   ...       0.00 
freq.    1493.41  E(vib)   ...       0.00 
freq.    1496.25  E(vib)   ...       0.00 
freq.    1498.59  E(vib)   ...       0.00 
freq.    1499.77  E(vib)   ...       0.00 
freq.    1501.48  E(vib)   ...       0.00 
freq.    1504.81  E(vib)   ...       0.00 
freq.    1509.67  E(vib)   ...       0.00 
freq.    1513.84  E(vib)   ...       0.00 
freq.    1520.90  E(vib)   ...       0.00 
freq.    1600.06  E(vib)   ...       0.00 
freq.    1609.23  E(vib)   ...       0.00 
freq.    1644.80  E(vib)   ...       0.00 
freq.    1659.66  E(vib)   ...       0.00 
freq.    1662.61  E(vib)   ...       0.00 
freq.    2898.61  E(vib)   ...       0.00 
freq.    2940.30  E(vib)   ...       0.00 
freq.    2973.44  E(vib)   ...       0.00 
freq.    2974.53  E(vib)   ...       0.00 
freq.    2978.66  E(vib)   ...       0.00 
freq.    2983.73  E(vib)   ...       0.00 
freq.    2991.11  E(vib)   ...       0.00 
freq.    2996.06  E(vib)   ...       0.00 
freq.    2996.77  E(vib)   ...       0.00 
freq.    2998.32  E(vib)   ...       0.00 
freq.    3001.40  E(vib)   ...       0.00 
freq.    3014.10  E(vib)   ...       0.00 
freq.    3020.21  E(vib)   ...       0.00 
freq.    3034.79  E(vib)   ...       0.00 
freq.    3041.52  E(vib)   ...       0.00 
freq.    3050.48  E(vib)   ...       0.00 
freq.    3059.71  E(vib)   ...       0.00 
freq.    3064.80  E(vib)   ...       0.00 
freq.    3074.06  E(vib)   ...       0.00 
freq.    3075.37  E(vib)   ...       0.00 
freq.    3077.23  E(vib)   ...       0.00 
freq.    3084.74  E(vib)   ...       0.00 
freq.    3098.08  E(vib)   ...       0.00 
freq.    3099.96  E(vib)   ...       0.00 
freq.    3105.12  E(vib)   ...       0.00 
freq.    3107.25  E(vib)   ...       0.00 
freq.    3108.09  E(vib)   ...       0.00 
freq.    3120.83  E(vib)   ...       0.00 
freq.    3130.76  E(vib)   ...       0.00 
freq.    3747.29  E(vib)   ...       0.00 

------------
INNER ENERGY
------------

The inner energy is: U= E(el) + E(ZPE) + E(vib) + E(rot) + E(trans)
    E(el)   - is the total energy from the electronic structure calculation
              = E(kin-el) + E(nuc-el) + E(el-el) + E(nuc-nuc)
    E(ZPE)  - the the zero temperature vibrational energy from the frequency calculation
    E(vib)  - the the finite temperature correction to E(ZPE) due to population
              of excited vibrational states
    E(rot)  - is the rotational thermal energy
    E(trans)- is the translational thermal energy

Summary of contributions to the inner energy U:
Electronic energy                ...   -854.95612810 Eh
Zero point energy                ...      0.44805533 Eh     281.16 kcal/mol
Thermal vibrational correction   ...      0.02158499 Eh      13.54 kcal/mol
Thermal rotational correction    ...      0.00141627 Eh       0.89 kcal/mol
Thermal translational correction ...      0.00141627 Eh       0.89 kcal/mol
-----------------------------------------------------------------------
Total thermal energy                   -854.48365525 Eh


Summary of corrections to the electronic energy:
(perhaps to be used in another calculation)
Total thermal correction                  0.02441753 Eh      15.32 kcal/mol
Non-thermal (ZPE) correction              0.44805533 Eh     281.16 kcal/mol
-----------------------------------------------------------------------
Total correction                          0.47247286 Eh     296.48 kcal/mol


--------
ENTHALPY
--------

The enthalpy is H = U + kB*T
                kB is Boltzmann's constant
Total thermal energy              ...   -854.48365525 Eh 
Thermal Enthalpy correction       ...      0.00094421 Eh       0.59 kcal/mol
-----------------------------------------------------------------------
Total Enthalpy                    ...   -854.48271104 Eh


Note: Only C1 symmetry has been detected, increase convergence thresholds 
      if your molecule has a higher symmetry. Symmetry factor of 1.0 is   
      used for the rotational entropy correction. 
 

Note: Rotational entropy computed according to Herzberg 
Infrared and Raman Spectra, Chapter V,1, Van Nostrand Reinhold, 1945 
Point Group:  C1, Symmetry Number:   1  
Rotational constants in cm-1:     0.025741     0.002629     0.002501 

Vibrational entropy computed according to the QRRHO of S. Grimme
Chem.Eur.J. 2012 18 9955 using a reference frequency of 100.0 cm-1


-------
ENTROPY
-------

The entropy contributions are T*S = T*(S(el)+S(vib)+S(rot)+S(trans))
     S(el)   - electronic entropy
     S(vib)  - vibrational entropy
     S(rot)  - rotational entropy
     S(trans)- translational entropy
The entropies will be listed as multiplied by the temperature to get
units of energy

Electronic entropy                ...      0.00000000 Eh      0.00 kcal/mol
Vibrational entropy               ...      0.03853334 Eh     24.18 kcal/mol
Rotational entropy                ...      0.01687160 Eh     10.59 kcal/mol
Translational entropy             ...      0.02036176 Eh     12.78 kcal/mol
-----------------------------------------------------------------------
Final entropy term                ...      0.07576670 Eh     47.54 kcal/mol

In case the symmetry of your molecule has not been determined correctly
or in case you have a reason to use a different symmetry number we print 
out the resulting rotational entropy values for sn=1,12:

 non-linear molecules -----------------------------------
|  sn= 1 | S(rot)=       0.01687160 Eh     10.59 kcal/mol|
|  sn= 2 | S(rot)=       0.01621714 Eh     10.18 kcal/mol|
|  sn= 3 | S(rot)=       0.01583431 Eh      9.94 kcal/mol|
|  sn= 4 | S(rot)=       0.01556269 Eh      9.77 kcal/mol|
|  sn= 5 | S(rot)=       0.01535200 Eh      9.63 kcal/mol|
|  sn= 6 | S(rot)=       0.01517985 Eh      9.53 kcal/mol|
|  sn= 7 | S(rot)=       0.01503431 Eh      9.43 kcal/mol|
|  sn= 8 | S(rot)=       0.01490823 Eh      9.36 kcal/mol|
|  sn= 9 | S(rot)=       0.01479702 Eh      9.29 kcal/mol|
|  sn=10 | S(rot)=       0.01469754 Eh      9.22 kcal/mol|
|  sn=11 | S(rot)=       0.01460755 Eh      9.17 kcal/mol|
|  sn=12 | S(rot)=       0.01452540 Eh      9.11 kcal/mol|
 linear molecules ---------------------------------------
|  Dinfh | S(rot)=       0.01098264 Eh      6.89 kcal/mol|
|  Cinfv | S(rot)=       0.01163710 Eh      7.30 kcal/mol|
 --------------------------------------------------------


-------------------
GIBBS FREE ENERGY
-------------------

The Gibbs free energy is G = H - T*S

Total enthalpy                    ...   -854.48271104 Eh 
Total entropy correction          ...     -0.07576670 Eh    -47.54 kcal/mol
-----------------------------------------------------------------------
Final Gibbs free energy         ...   -854.55847774 Eh

For completeness - the Gibbs free energy minus the electronic energy
G-E(el)                           ...      0.39765037 Eh    249.53 kcal/mol


Maximum memory used throughout the entire PROP-calculation: 135.3 MB

--------------------------------
SUGGESTED CITATIONS FOR THIS RUN
--------------------------------

Below you find a list of papers that are relevant to this ORCA run
We neither can nor want to force you to cite these papers, but we appreciate if you do
You receive ORCA, which is the product of decades of hard work by many enthusiastic individuals, for free
The only thing we kindly ask in return is that you cite our papers,
We deeply appreciate it, if you show your appreciation for ORCA by not just citing the generic ORCA reference.

Please note that relegating all ORCA citations to the supporting information does *not* help us.
SI sections are not indexed - citations you put there will not count into any citation statistics
But we need these citations in order to attract the funding resources that allow us to do what we are doing

Therefore, if you are a happy ORCA user, please consider citing a few of the papers listed below in the main body of your paper

In addition to the list printed below, the program has created the file m1_00_Vitamin_A-QM3_024-B97-3C-TZ_0_pos-B97-3C-TZ.bibtex that contains the list in bibtex format
You can import this file easily into all common literature databanks and citation aid programs


List of essential papers. We consider these as the minimum necessary citations

  1. Neese,F.
     Software update: the ORCA program system, version 5.0
     WIRES Comput. Molec. Sci., 2022 12(1)e1606
     doi.org/10.1002/wcms.1606

List of papers to cite with high priority. The work reported in these papers was absolutely
necessary for this run to complete.
Our perspective: the developers of density functionals and basis sets usually get cited in chemistry papers
Good! But without the algorithms to do something with them, the functionals or basis sets would not do anything.
Hence, in our opinion, the algorithm design and method developments papers are equally worthy of getting cited

  1. Neese,F.
     An improvement of the resolution of the identity approximation for the formation of the Coulomb matrix
     J. Comp. Chem., 2003 24(14)1740-1747
     doi.org/10.1002/jcc.10318
  2. Bykov,D.; Petrenko,T.; Izsak,R.; Kossmann,S.; Becker,U.; Valeev,E.; Neese,F.
     Efficient implementation of the analytic second derivatives of Hartree-Fock and hybrid DFT energies: a detailed analysis of different approximations
     Molec. Phys., 2015 113 1961-1977
     doi.org/10.1080/00268976.2015.1025114
  3. Neese,F.
     The SHARK Integral Generation and Digestion System
     J. Comp. Chem., 2022  1-16
     doi.org/10.1002/jcc.26942
  4. Grimme,S.; Antony,J.; Ehrlich,S.; Krieg,H.
     A consistent and accurate ab initio parametrization of density functional dispersion correction (DFT-D) for the 94 elements H-Pu
     J. Chem. Phys., 2010 132 154104
     doi.org/10.1063/1.3382344
  5. Grimme,S.; Ehrlich,S.; Goerigk,L.
     Effect of the damping function in dispersion corrected density functional theory
     J. Comput. Chem., 2011 32(7)1456-1465
     doi.org/10.1002/jcc.21759

List of suggested additional citations. These are papers that are important in the 'surrounding' of 
of this run, or papers that preceded the highly important papers. If you like your results we are grateful for a citation.

  1. Neese,F.
     The ORCA program system
     WIRES Comput. Molec. Sci., 2012 2(1)73-78
     doi.org/10.1002/wcms.81
  2. Neese,F.
     Software update: the ORCA program system, version 4.0
     WIRES Comput. Molec. Sci., 2018 8(1)1-6
     doi.org/10.1002/wcms.1327
  3. Neese,F.; Wennmohs,F.; Becker,U.; Riplinger,C.
     The ORCA quantum chemistry program package
     J. Chem. Phys., 2020 152 Art. No. L224108
     doi.org/10.1063/5.0004608

List of optional additional citations

  1. Neese,F.
     Approximate second-order SCF convergence for spin unrestricted wavefunctions
     Chem. Phys. Lett., 2000 325(1-3)93-98
     doi.org/10.1016/s0009-2614(00)00662-x

Timings for individual modules:

Sum of individual times          ...      615.353 sec (=  10.256 min)
Startup calculation              ...       71.836 sec (=   1.197 min)  11.7 %
SCF iterations                   ...      128.248 sec (=   2.137 min)  20.8 %
Property integrals               ...      121.391 sec (=   2.023 min)  19.7 %
SCF Response                     ...      151.377 sec (=   2.523 min)  24.6 %
Property calculations            ...       54.074 sec (=   0.901 min)   8.8 %
SCF Gradient evaluation          ...       88.206 sec (=   1.470 min)  14.3 %
Geometry relaxation              ...        0.221 sec (=   0.004 min)   0.0 %
                             ****ORCA TERMINATED NORMALLY****
TOTAL RUN TIME: 0 days 0 hours 10 minutes 19 seconds 14 msec
