
                                 *****************
                                 * O   R   C   A *
                                 *****************

                                            #,                                       
                                            ###                                      
                                            ####                                     
                                            #####                                    
                                            ######                                   
                                           ########,                                 
                                     ,,################,,,,,                         
                               ,,#################################,,                 
                          ,,##########################################,,             
                       ,#########################################, ''#####,          
                    ,#############################################,,   '####,        
                  ,##################################################,,,,####,       
                ,###########''''           ''''###############################       
              ,#####''   ,,,,##########,,,,          '''####'''          '####       
            ,##' ,,,,###########################,,,                        '##       
           ' ,,###''''                  '''############,,,                           
         ,,##''                                '''############,,,,        ,,,,,,###''
      ,#''                                            '''#######################'''  
     '                                                          ''''####''''         
             ,#######,   #######,   ,#######,      ##                                
            ,#'     '#,  ##    ##  ,#'     '#,    #''#        ,####,   ,####,        
            ##       ##  ##   ,#'  ##            #'  '#       #'       #'  '#        
            ##       ##  #######   ##           ,######,      #####,   #    #        
            '#,     ,#'  ##    ##  '#,     ,#' ,#      #,     #,   #   #,  ,#        
             '#######'   ##     ##  '#######'  #'      '#     '####' # '####'        



                #########################################################
                #                        -***-                          #
                #          Department of theory and spectroscopy        #
                #                                                       #
                #                      Frank Neese                      #
                #                                                       #
                #     Directorship, Architecture, Infrastructure        #
                #                    SHARK, DRIVERS                     #
                #        Core code/Algorithms in most modules           #
                #                                                       #
                #        Max Planck Institute fuer Kohlenforschung      #
                #                Kaiser Wilhelm Platz 1                 #
                #                 D-45470 Muelheim/Ruhr                 #
                #                      Germany                          #
                #                                                       #
                #                  All rights reserved                  #
                #                        -***-                          #
                #########################################################


                         Program Version 6.0.1  -  RELEASE   -


 With contributions from (in alphabetic order):
[Max-Planck-Institut fuer Kohlenforschung]                               
  Daniel Aravena         : Magnetic Suceptibility                        
  Michael Atanasov       : Ab Initio Ligand Field Theory (pilot matlab implementation)
  Alexander A. Auer      : GIAO ZORA, VPT2 properties, NMR spectrum      
  Ute Becker             : All parallelization in ORCA, NUMFREQ, NUMCALC 
  Giovanni Bistoni       : ED, misc. LED, open-shell LED, HFLD           
  Martin Brehm           : Molecular dynamics                            
  Dmytro Bykov           : pre 5.0 version of the SCF Hessian            
  Marcos Casanova-Páez   : Triplet and SCS-CIS(D). UHF-(DLPNO)-IP/EA/STEOM-CCSD. UHF-CVS-IP/STEOM-CCSD   
  Vijay G. Chilkuri      : MRCI spin determinant printing, contributions to CSF-ICE 
  Pauline Colinet        : FMM embedding                                 
  Dipayan Datta          : RHF DLPNO-CCSD density                        
  Achintya Kumar Dutta   : EOM-CC, STEOM-CC                              
  Nicolas Foglia         : Exact transition moments, OPA infrastructure, MCD improvements    
  Dmitry Ganyushin       : Spin-Orbit,Spin-Spin,Magnetic field MRCI      
  Miquel Garcia-Rates    : C-PCM and meta-GGA Hessian, CCSD/C-PCM, Gaussian charge scheme 
  Tiago L. C. Gouveia    : GS-ROHF, GS-ROCIS                             
  Yang Guo               : DLPNO-NEVPT2, F12-NEVPT2, CIM, IAO-localization        
  Andreas Hansen         : Spin unrestricted coupled pair/coupled cluster methods 
  Ingolf Harden          : AUTO-CI MPn and infrastructure                
  Benjamin Helmich-Paris : MC-RPA, TRAH-(SCF,CASSCF), AVAS, COSX integrals, SCF dyn. polar. 
  Lee Huntington         : MR-EOM, pCC                                   
  Robert Izsak           : Overlap fitted RIJCOSX, COSX-SCS-MP3, EOM     
  Riya Kayal             : Wick's Theorem for AUTO-CI, AUTO-CI UHF-CCSDT 
  Emily Kempfer          : AUTO-CI, RHF CISDT and CCSDT                  
  Christian Kollmar      : KDIIS, OOCD, Brueckner-CCSD(T), CCSD density, CASPT2, CASPT2-K, improved NEVPT2 
  Axel Koslowski         : Symmetry handling                             
  Simone Kossmann        : meta-GGA functionals, TD-DFT gradient, OOMP2, (MP2 Hessian; deprecated post 5.0) 
  Lucas Lang             : DCDCAS                                        
  Marvin Lechner         : AUTO-CI (C++ implementation), FIC-MRCC        
  Spencer Leger          : CASSCF response                               
  Dagmar Lenk            : GEPOL surface, SMD, ORCA-2-JSON               
  Dimitrios Liakos       : Extrapolation schemes; Compound Job, initial MDCI parallelization 
  Dimitrios Manganas     : Further ROCIS development; embedding schemes. LFT, Crystal Embedding 
  Dimitrios Pantazis     : SARC Basis sets                               
  Anastasios Papadopoulos: AUTO-CI, single reference methods and gradients 
  Taras Petrenko         : pre 6.0 DFT Hessian and TD-DFT gradient, (ASA, deprecated), ECA, 1-Electron XAS/XES, NRVS 
  Peter Pinski           : DLPNO-MP2, DLPNO-MP2 Gradient                 
  Christoph Reimann      : Effective Core Potentials                     
  Marius Retegan         : Local ZFS, SOC                                
  Christoph Riplinger    : Optimizer, TS searches, QM/MM, DLPNO-CCSD(T), (RO)-DLPNO pert. Triples 
  Michael Roemelt        : Original ROCIS implementation                 
  Masaaki Saitow         : Open-shell DLPNO-CCSD energy and density      
  Barbara Sandhoefer     : DKH picture change effects                    
  Kantharuban Sivalingam : CASSCF convergence/infrastructure, NEVPT2 and variants, FIC-MRCI 
  Bernardo de Souza      : ESD, SOC TD-DFT                               
  Georgi L. Stoychev     : AutoAux, RI-MP2 NMR, DLPNO-MP2 response, X2C  
  Van Anh Tran           : RI-MP2 g-tensors                              
  Willem Van den Heuvel  : Paramagnetic NMR                              
  Zikuan Wang            : NOTCH, Electric field optimization            
  Frank Wennmohs         : Technical directorship and infrastructure     
  Hang Xu                : AUTO-CI-Response properties                   
                                                                         
[FACCTs GmbH]                                                            
  Markus Bursch, Miquel Garcia-Rates, Christoph Riplinger, Bernardo de Souza, Georgi L. Stoychev 
                                                                 
  APM, Basis sets (HGBS, AHGBS, def-TZVP (Ac-Lr), def2-XVPD (La-Lu)), CI-OPT, improved COSX, DLPNO-Multilevel,           
  DOCKER, DRACO, updates on ESD, GOAT, IRC, LR-CPCM, MBIS, meta-GGA TD-DFT gradient, ML-optimized integration grids, 
  MM, NACMEs, nearIR, NEB, NEB-TS, NL-DFT gradient (VV10), 2- and 3-layer-ONIOM, interface openCOSMO-RS, QMMM,   
  Crystal-QMMM, SF, symmetry and pop. for TD-DFT, r2SCAN hybrids, SOLVATOR                                   
                                                                         
[Other institutions]                                                     
  V. Asgeirsson          : NEB                                           
  Christoph Bannwarth    : sTDA-DFT, sTD-DFT, PBEh-3c, B97-3c, D3        
  Sebastian Ehlert       : rSCAN, r2SCAN, r2SCAN-3c, D4, dhf basis sets  
  Marvin Friede          : D4 for Fr, Ra, Ac-Lr                          
  Lars Goerigk           : TD-DFT with DH, B97 family of functionals     
  Stefan Grimme          : VdW corrections, initial TS optimization, DFT functionals, gCP, sTDA/sTD-DF 
  Waldemar Hujo          : DFT-NL                                        
  H. Jonsson             : NEB                                           
  Holger Kruse           : gCP                                           
  Marcel Mueller         : wB97X-3c, vDZP basis set                      
  Hagen Neugebauer       : wr2SCAN                                       
  Tobias Risthaus        : range-separated hybrid DFT                    
  Lukas Wittmann         : regularized MP2, r2SCAN double-hybrids, wr2SCAN        
                                                                         
We gratefully acknowledge several colleagues who have allowed us to      
interface, adapt or use parts of their codes:                            
  Ed Valeev, F. Pavosevic, A. Kumar             : LibInt (2-el integral package), F12 methods 
  Garnet Chan, S. Sharma, J. Yang, R. Olivares  : DMRG                   
  Ulf Ekstrom                                   : XCFun DFT Library      
  Mihaly Kallay                                 : mrcc  (arbitrary order and MRCC methods)
  Frank Weinhold                                : gennbo (NPA and NBO analysis)           
  Simon Mueller                                 : openCOSMO-RS                            
  Christopher J. Cramer and Donald G. Truhlar   : smd solvation model                     
  S Lehtola, MJT Oliveira, MAL Marques          : LibXC Library                           
  Liviu Ungur et al                             : ANISO software                          


 Your calculation uses the libint2 library for the computation of 2-el integrals
 For citations please refer to: http://libint.valeyev.net

 Your ORCA version has been built with support for libXC version: 6.2.2
 For citations please refer to: https://libxc.gitlab.io

 This ORCA versions uses:
   CBLAS   interface :  Fast vector & matrix operations
   LAPACKE interface :  Fast linear algebra routines
   SCALAPACK package :  Parallel linear algebra routines
   Shared memory     :  Shared parallel matrices
   BLAS/LAPACK       :  OpenBLAS 0.3.27  USE64BITINT DYNAMIC_ARCH NO_AFFINITY Zen SINGLE_THREADED
        Core in use  :  Zen
   Copyright (c) 2011-2014, The OpenBLAS Project


NOTE: MaxCore=6000 MB was set to SCF,MP2,MDCI,CIPSI,MRCI and CIS
      => If you want to overwrite this, your respective input block should be placed after the MaxCore statement
Your calculation utilizes the atom-pairwise dispersion correction
with the Becke-Johnson damping scheme (D3BJ)


Your calculation employs the composite approach B97-3c by Grimme and coworkers.
For the correct reference, please check the publication list of the Grimme group:
http://www.thch.uni-bonn.de/tc/index.php?section=publikationen&subsection=grimme#2017
   

XCFun DFT library Copyright 2009-2010 Ulf Ekstrom and contributors.
See http://admol.org/xcfun for more information.
This is free software; see the source code for copying conditions.
There is ABSOLUTELY NO WARRANTY; not even for MERCHANTABILITY or FITNESS FOR A PARTICULAR PURPOSE.
For details see the documentation.
Scientific users of this library should cite U. Ekstrom, L. Visscher, R. Bast, A. J. Thorvaldsen and K. Ruud;
J.Chem.Theor.Comp. 2010, DOI: 10.1021/ct100117s
XCFun Version 0.99 

================================================================================

----- Orbital basis set information -----
Your calculation utilizes the basis: def2-mTZVP
----- AuxJ basis set information -----
Your calculation utilizes the basis: def2-mTZVP/J
================================================================================
                                        WARNINGS
                       Please study these warnings very carefully!
================================================================================


WARNING: Geometry Optimization
  ===> : Switching off AutoStart
         For restart on a previous wavefunction, please use MOREAD

================================================================================
                                       INPUT FILE
================================================================================
NAME = m1_00_Vitamin_B2-QM3_0000-B97-3C-TZ.inp
|  1> %pal nprocs 16 end
|  2> %MaxCore 6000
|  3> # put your comments here
|  4> ! B97-3C  OPT  FREQ DEFGRID3 NOTRAH
|  5> %scf MaxIter 800 end
|  6> %output
|  7> Print [P_Hirshfeld] 1
|  8> end
|  9> %geom
| 10> MaxIter 3000
| 11>  TolE 1e-6 #TolE 5e-6 Energy change (a.u.)
| 12>  TolRMSG 3e-5 #TolRMSG 1e-4 RMS gradient (a.u.)
| 13>  TolMaxG 1e-4 #TolMaxG 3e-3 Max. element of gradient (a.u.)
| 14>  TolRMSD 2e-3 #TolRMSD 2e-3 RMS displacement (a.u.)
| 15>  TolMaxD 4e-3 #TolMaxD 4e-3 Max. displacement (a.u.)
| 16> end
| 17> * xyz 0 1
| 18>  O       1.67797046       0.77930834      -1.23629260
| 19>  O      -0.91224148       1.11778452      -1.70507578
| 20>  O      -0.19683157      -1.32083049      -4.29569887
| 21>  O      -3.01863968       0.71927522      -3.22844147
| 22>  O      -4.15184788       0.34377520       2.46982198
| 23>  O      -4.11303807      -1.23302230      -1.75576373
| 24>  N      -0.05925466      -0.75048525       0.27250340
| 25>  N      -1.32865680       0.36182735       2.45486193
| 26>  N      -2.10103290      -1.18267609      -0.68649197
| 27>  N      -4.10408065      -0.57772416       0.39876258
| 28>  C       0.98280307      -0.23820476      -1.88743818
| 29>  C       0.57506829      -1.30402230      -0.89852215
| 30>  C      -0.16722785       0.39645836      -2.62379915
| 31>  C      -1.00455329      -0.57746185      -3.41924025
| 32>  C       0.70135226      -0.26303351       1.32054932
| 33>  C      -1.41119367      -0.70620423       0.30231374
| 34>  C       0.04207126       0.30247380       2.41052672
| 35>  C       2.09766286      -0.31628744       1.34303520
| 36>  C      -2.01553632      -0.11137089       1.48477354
| 37>  C      -2.11304602       0.15983746      -4.13888365
| 38>  C       2.81574613       0.18391630       2.40242705
| 39>  C       0.77968272       0.81041438       3.49366644
| 40>  C       2.14770229       0.76401180       3.51237273
| 41>  C      -3.51490140      -0.07547880       1.54642004
| 42>  C       4.31910313       0.11849979       2.37647042
| 43>  C       2.92584169       1.31422193       4.67950941
| 44>  C      -3.45938054      -1.02962890      -0.74656280
| 45>  H       1.65293690      -0.72163322      -2.61199412
| 46>  H      -0.10692322      -2.01177670      -1.35315464
| 47>  H       1.45591630      -1.85276553      -0.57898959
| 48>  H       0.29296816       1.09159949      -3.34132380
| 49>  H      -1.47678151      -1.28024390      -2.74151724
| 50>  H       2.62320155      -0.72303939       0.49990556
| 51>  H      -1.70375501       0.97645060      -4.74146381
| 52>  H      -2.60704757      -0.53738724      -4.82226820
| 53>  H       0.21326249       1.23645050       4.31105747
| 54>  H       1.03246321       1.45317511      -1.00073086
| 55>  H      -1.79836188       1.24021466      -2.08822266
| 56>  H       0.14969415      -0.73009933      -4.97136992
| 57>  H       4.67585305      -0.34592707       1.45899538
| 58>  H       4.74774856       1.12067390       2.44507599
| 59>  H       4.69411894      -0.45622676       3.22653354
| 60>  H       2.25337189       1.71576824       5.43617378
| 61>  H       3.53879504       0.53728209       5.14213761
| 62>  H       3.59859903       2.11303080       4.35897220
| 63>  H      -5.10854641      -0.50441303       0.33311211
| 64>  H      -3.52105506      -0.00650668      -2.80673269
| 65> *
| 66> 
| 67> 
| 68> 
| 69> 
| 70>                          ****END OF INPUT****
================================================================================

                       *****************************
                       * Geometry Optimization Run *
                       *****************************

Geometry optimization settings:
Update method            Update   .... BFGS
Choice of coordinates    CoordSys .... (2022) Redundant Internals
Initial Hessian          InHess   .... Almloef's Model
Max. no of cycles        MaxIter  .... 3000

Convergence Tolerances:
Energy Change            TolE     ....  1.0000e-06 Eh
Max. Gradient            TolMAXG  ....  1.0000e-04 Eh/bohr
RMS Gradient             TolRMSG  ....  3.0000e-05 Eh/bohr
Max. Displacement        TolMAXD  ....  4.0000e-03 bohr
RMS Displacement         TolRMSD  ....  2.0000e-03 bohr
Strict Convergence                .... False

------------------------------------------------------------------------------
                        ORCA OPTIMIZATION COORDINATE SETUP
------------------------------------------------------------------------------

The optimization will be done in redundant internal coordinates (2022)
Making redundant internal coordinates   ...  (2022 redundants) done
Evaluating the initial hessian          ...  (Almloef) done
Evaluating the coordinates              ...  done
Calculating the B-matrix                .... done
Calculating the G-matrix                .... done
Diagonalizing the G-matrix              .... done
Small eigenvalue found = 3.786e-03
Small eigenvalue found = 5.784e-03
Small eigenvalue found = 1.455e-02
Small eigenvalue found = 2.024e-02
Small eigenvalue found = 2.563e-02
The first mode is                       ....  108
The number of degrees of freedom        ....  135

    -----------------------------------------------------------------
                    Redundant Internal Coordinates


    -----------------------------------------------------------------
         Definition                    Initial Value    Approx d2E/dq
    -----------------------------------------------------------------
      1. B(C  10,O   0)                  1.3938         0.551910   
      2. B(C  11,C  10)                  1.5100         0.402022   
      3. B(C  11,N   6)                  1.4422         0.461873   
      4. B(C  12,O   1)                  1.3854         0.569076   
      5. B(C  12,C  10)                  1.5059         0.408226   
      6. B(C  13,C  12)                  1.5107         0.400952   
      7. B(C  13,O   2)                  1.4047         0.530173   
      8. B(C  14,N   6)                  1.3837         0.572770   
      9. B(C  15,N   8)                  1.2964         0.789253   
     10. B(C  15,N   6)                  1.3530         0.641089   
     11. B(C  16,N   7)                  1.3727         0.596253   
     12. B(C  16,C  14)                  1.3937         0.616279   
     13. B(C  17,C  14)                  1.3975         0.607802   
     14. B(C  18,C  15)                  1.4551         0.491929   
     15. B(C  18,N   7)                  1.2794         0.840187   
     16. B(C  19,C  13)                  1.5134         0.397126   
     17. B(C  19,O   3)                  1.4007         0.538017   
     18. B(C  20,C  17)                  1.3741         0.662371   
     19. B(C  21,C  16)                  1.4054         0.590340   
     20. B(C  22,C  21)                  1.3689         0.675068   
     21. B(C  22,C  20)                  1.4194         0.560776   
     22. B(C  23,C  18)                  1.5011         0.415478   
     23. B(C  23,N   9)                  1.3844         0.571276   
     24. B(C  23,O   4)                  1.1976         1.134760   
     25. B(C  24,C  20)                  1.5050         0.409504   
     26. B(C  25,C  22)                  1.5068         0.406813   
     27. B(C  26,N   9)                  1.3898         0.559947   
     28. B(C  26,N   8)                  1.3683         0.606118   
     29. B(C  26,O   5)                  1.2195         1.046970   
     30. B(H  27,C  10)                  1.0990         0.348411   
     31. B(H  28,C  11)                  1.0829         0.369586   
     32. B(H  29,C  11)                  1.0859         0.365605   
     33. B(H  30,C  12)                  1.0999         0.347202   
     34. B(H  31,C  13)                  1.0845         0.367406   
     35. B(H  32,C  17)                  1.0735         0.382535   
     36. B(H  33,C  19)                  1.0943         0.354464   
     37. B(H  34,C  19)                  1.0942         0.354646   
     38. B(H  35,C  21)                  1.0819         0.371002   
     39. B(H  36,O   1)                  2.0953         0.008028   
     40. B(H  36,O   0)                  0.9624         0.515341   
     41. B(H  37,O   3)                  1.7494         0.028606   
     42. B(H  37,O   1)                  0.9731         0.495455   
     43. B(H  38,O   2)                  0.9621         0.516021   
     44. B(H  39,C  24)                  1.0884         0.362156   
     45. B(H  40,C  24)                  1.0922         0.357264   
     46. B(H  41,C  24)                  1.0925         0.356809   
     47. B(H  42,C  25)                  1.0890         0.361380   
     48. B(H  43,C  25)                  1.0924         0.356918   
     49. B(H  44,C  25)                  1.0924         0.356876   
     50. B(H  45,N   9)                  1.0093         0.433862   
     51. B(H  46,O   5)                  1.7203         0.031843   
     52. B(H  46,O   3)                  0.9783         0.486197   
     53. A(C  10,O   0,H  36)          106.9165         0.362259   
     54. A(C  12,O   1,H  37)          107.1022         0.361720   
     55. A(C  13,O   2,H  38)          108.6857         0.359866   
     56. A(C  19,O   3,H  46)          108.4163         0.357130   
     57. A(C  14,N   6,C  15)          121.4032         0.424912   
     58. A(C  11,N   6,C  14)          120.5602         0.400886   
     59. A(C  11,N   6,C  15)          118.0294         0.408942   
     60. A(C  16,N   7,C  18)          119.7109         0.449379   
     61. A(C  15,N   8,C  26)          121.3753         0.445636   
     62. A(C  23,N   9,H  45)          116.8166         0.353879   
     63. A(C  23,N   9,C  26)          127.1360         0.414586   
     64. A(C  26,N   9,H  45)          115.5738         0.352681   
     65. A(C  11,C  10,H  27)          106.6151         0.326480   
     66. A(O   0,C  10,H  27)          108.9664         0.342038   
     67. A(O   0,C  10,C  11)          110.1211         0.391200   
     68. A(C  12,C  10,H  27)          109.1894         0.327304   
     69. A(C  11,C  10,C  12)          114.2999         0.373604   
     70. A(O   0,C  10,C  12)          107.5584         0.392250   
     71. A(C  10,C  11,H  28)          110.8799         0.329673   
     72. A(N   6,C  11,H  29)          108.1679         0.334706   
     73. A(C  10,C  11,H  29)          109.2910         0.329083   
     74. A(N   6,C  11,H  28)          108.3443         0.335309   
     75. A(H  28,C  11,H  29)          107.7056         0.292729   
     76. A(N   6,C  11,C  10)          112.3092         0.379261   
     77. A(C  13,C  12,H  30)          107.2077         0.326150   
     78. A(O   1,C  12,C  13)          112.7526         0.393119   
     79. A(C  10,C  12,H  30)          105.4161         0.327117   
     80. A(O   1,C  12,H  30)          109.1795         0.343599   
     81. A(O   1,C  12,C  10)          107.8092         0.394359   
     82. A(C  10,C  12,C  13)          114.1451         0.373432   
     83. A(O   2,C  13,H  31)          107.2986         0.342779   
     84. A(C  12,C  13,H  31)          109.2719         0.329205   
     85. A(C  12,C  13,C  19)          110.0152         0.371663   
     86. A(O   2,C  13,C  19)          112.4762         0.387635   
     87. A(C  19,C  13,H  31)          107.0932         0.328685   
     88. A(O   2,C  13,C  12)          110.5471         0.388284   
     89. A(N   6,C  14,C  17)          123.2297         0.423636   
     90. A(N   6,C  14,C  16)          118.3772         0.424686   
     91. A(C  16,C  14,C  17)          118.3922         0.432050   
     92. A(N   6,C  15,N   8)          120.1902         0.450193   
     93. A(N   8,C  15,C  18)          123.3032         0.432001   
     94. A(N   6,C  15,C  18)          116.5061         0.416233   
     95. A(C  14,C  16,C  21)          120.0723         0.429794   
     96. A(N   7,C  16,C  21)          118.9171         0.424472   
     97. A(N   7,C  16,C  14)          121.0071         0.427753   
     98. A(C  20,C  17,H  32)          119.1826         0.360577   
     99. A(C  14,C  17,H  32)          119.4009         0.355343   
    100. A(C  14,C  17,C  20)          121.3772         0.437696   
    101. A(N   7,C  18,C  23)          119.7553         0.423842   
    102. A(N   7,C  18,C  15)          122.9838         0.436890   
    103. A(C  15,C  18,C  23)          117.2589         0.388096   
    104. A(O   3,C  19,H  34)          111.6277         0.341595   
    105. A(C  13,C  19,H  33)          110.5765         0.326747   
    106. A(O   3,C  19,H  33)          107.5590         0.341565   
    107. A(O   3,C  19,C  13)          111.0425         0.388629   
    108. A(C  13,C  19,H  34)          108.4970         0.326775   
    109. A(H  33,C  19,H  34)          107.4858         0.289427   
    110. A(C  17,C  20,C  22)          120.3773         0.431398   
    111. A(C  22,C  20,C  24)          120.0913         0.396088   
    112. A(C  17,C  20,C  24)          119.5309         0.407881   
    113. A(C  16,C  21,C  22)          121.5173         0.436895   
    114. A(C  22,C  21,H  35)          121.7508         0.359863   
    115. A(C  16,C  21,H  35)          116.7318         0.351765   
    116. A(C  20,C  22,C  21)          118.2615         0.432873   
    117. A(C  21,C  22,C  25)          120.9494         0.408777   
    118. A(C  20,C  22,C  25)          120.7891         0.395630   
    119. A(O   4,C  23,N   9)          122.6750         0.471029   
    120. A(N   9,C  23,C  18)          112.4818         0.395846   
    121. A(O   4,C  23,C  18)          124.8415         0.447412   
    122. A(H  40,C  24,H  41)          107.4050         0.290060   
    123. A(H  39,C  24,H  41)          108.5960         0.290680   
    124. A(C  20,C  24,H  41)          110.6302         0.328762   
    125. A(H  39,C  24,H  40)          108.4118         0.290738   
    126. A(C  20,C  24,H  40)          110.5534         0.328831   
    127. A(C  20,C  24,H  39)          111.1300         0.329571   
    128. A(H  43,C  25,H  44)          107.3834         0.290025   
    129. A(H  42,C  25,H  44)          108.3319         0.290591   
    130. A(C  22,C  25,H  44)          110.9624         0.328415   
    131. A(H  42,C  25,H  43)          108.3287         0.290596   
    132. A(C  22,C  25,H  43)          110.9829         0.328421   
    133. A(C  22,C  25,H  42)          110.7281         0.329095   
    134. A(N   8,C  26,N   9)          117.4322         0.418978   
    135. A(O   5,C  26,N   9)          119.1810         0.462433   
    136. A(O   5,C  26,N   8)          123.3538         0.469190   
    137. D(C  11,C  10,O   0,H  36)    -93.3637         0.024287   
    138. D(H  27,C  10,O   0,H  36)    150.0261         0.024287   
    139. D(C  12,C  10,O   0,H  36)     31.7781         0.024287   
    140. D(N   6,C  11,C  10,H  27)    166.9968         0.012819   
    141. D(N   6,C  11,C  10,C  12)    -72.2668         0.012819   
    142. D(H  28,C  11,N   6,C  15)    -26.9988         0.018213   
    143. D(H  29,C  11,N   6,C  14)     37.4757         0.018213   
    144. D(H  28,C  11,C  10,O   0)    170.3011         0.012819   
    145. D(H  28,C  11,C  10,H  27)    -71.6293         0.012819   
    146. D(C  10,C  11,N   6,C  14)    -83.2203         0.018213   
    147. D(H  28,C  11,N   6,C  14)    153.9650         0.018213   
    148. D(H  28,C  11,C  10,C  12)     49.1071         0.012819   
    149. D(C  10,C  11,N   6,C  15)     95.8159         0.018213   
    150. D(N   6,C  11,C  10,O   0)     48.9272         0.012819   
    151. D(C  10,C  12,O   1,H  37)   -159.2627         0.028155   
    152. D(C  13,C  12,C  10,H  27)     60.2843         0.013204   
    153. D(C  13,C  12,C  10,C  11)    -59.0125         0.013204   
    154. D(C  13,C  12,C  10,O   0)    178.3884         0.013204   
    155. D(O   1,C  12,C  10,H  27)   -173.6178         0.013204   
    156. D(O   1,C  12,C  10,C  11)     67.0854         0.013204   
    157. D(H  30,C  12,O   1,H  37)     86.6985         0.028155   
    158. D(O   1,C  12,C  10,O   0)    -55.5137         0.013204   
    159. D(C  13,C  12,O   1,H  37)    -32.3488         0.028155   
    160. D(C  19,C  13,C  12,O   1)     57.5769         0.012753   
    161. D(O   2,C  13,C  12,C  10)    -54.1328         0.012753   
    162. D(O   2,C  13,C  12,O   1)   -177.5994         0.012753   
    163. D(O   2,C  13,C  12,H  30)     62.2133         0.012753   
    164. D(H  31,C  13,O   2,H  38)    173.3360         0.022322   
    165. D(C  12,C  13,O   2,H  38)    -67.5922         0.022322   
    166. D(C  19,C  13,C  12,C  10)   -178.9565         0.012753   
    167. D(C  19,C  13,O   2,H  38)     55.8191         0.022322   
    168. D(C  19,C  13,C  12,H  30)    -62.6104         0.012753   
    169. D(C  17,C  14,N   6,C  15)    178.5358         0.026271   
    170. D(C  17,C  14,N   6,C  11)     -2.4609         0.026271   
    171. D(C  16,C  14,N   6,C  15)     -1.1130         0.026271   
    172. D(C  16,C  14,N   6,C  11)    177.8903         0.026271   
    173. D(C  18,C  15,N   8,C  26)      7.0048         0.047857   
    174. D(C  18,C  15,N   6,C  14)      0.4947         0.033462   
    175. D(C  18,C  15,N   6,C  11)   -178.5330         0.033462   
    176. D(N   8,C  15,N   6,C  14)   -179.2649         0.033462   
    177. D(N   6,C  15,N   8,C  26)   -173.2526         0.047857   
    178. D(N   8,C  15,N   6,C  11)      1.7074         0.033462   
    179. D(C  21,C  16,C  14,C  17)      0.4272         0.026262   
    180. D(C  21,C  16,C  14,N   6)   -179.9067         0.026262   
    181. D(N   7,C  16,C  14,C  17)   -178.8849         0.026262   
    182. D(C  21,C  16,N   7,C  18)   -179.1199         0.025944   
    183. D(C  14,C  16,N   7,C  18)      0.2000         0.025944   
    184. D(N   7,C  16,C  14,N   6)      0.7812         0.026262   
    185. D(H  32,C  17,C  14,C  16)   -178.2744         0.025504   
    186. D(H  32,C  17,C  14,N   6)      2.0768         0.025504   
    187. D(C  20,C  17,C  14,C  16)     -0.5753         0.025504   
    188. D(C  20,C  17,C  14,N   6)    179.7759         0.025504   
    189. D(C  23,C  18,C  15,N   8)      0.8022         0.016478   
    190. D(C  23,C  18,C  15,N   6)   -178.9491         0.016478   
    191. D(N   7,C  18,C  15,N   8)   -179.7165         0.016478   
    192. D(N   7,C  18,C  15,N   6)      0.5321         0.016478   
    193. D(C  23,C  18,N   7,C  16)    178.6003         0.055066   
    194. D(C  15,C  18,N   7,C  16)     -0.8685         0.055066   
    195. D(O   3,C  19,C  13,C  12)    -65.4565         0.012520   
    196. D(O   3,C  19,C  13,O   2)    170.8360         0.012520   
    197. D(H  34,C  19,O   3,H  46)     51.2687         0.024996   
    198. D(H  33,C  19,O   3,H  46)    168.9454         0.024996   
    199. D(C  13,C  19,O   3,H  46)    -69.9429         0.024996   
    200. D(H  33,C  19,C  13,H  31)    172.5179         0.012520   
    201. D(H  33,C  19,C  13,C  12)     53.8641         0.012520   
    202. D(H  33,C  19,C  13,O   2)    -69.8435         0.012520   
    203. D(O   3,C  19,C  13,H  31)     53.1974         0.012520   
    204. D(C  24,C  20,C  17,H  32)     -1.6252         0.030631   
    205. D(C  24,C  20,C  17,C  14)   -179.3292         0.030631   
    206. D(C  22,C  20,C  17,H  32)    178.1077         0.030631   
    207. D(C  22,C  20,C  17,C  14)      0.4037         0.030631   
    208. D(H  35,C  21,C  16,C  14)   -179.9554         0.023984   
    209. D(H  35,C  21,C  16,N   7)     -0.6290         0.023984   
    210. D(C  22,C  21,C  16,C  14)     -0.1147         0.023984   
    211. D(C  22,C  21,C  16,N   7)    179.2117         0.023984   
    212. D(C  25,C  22,C  21,H  35)     -0.2546         0.031908   
    213. D(C  25,C  22,C  21,C  16)    179.9127         0.031908   
    214. D(C  20,C  22,C  21,H  35)    179.7664         0.031908   
    215. D(C  20,C  22,C  21,C  16)     -0.0663         0.031908   
    216. D(C  25,C  22,C  20,C  24)     -0.3232         0.021543   
    217. D(C  25,C  22,C  20,C  17)    179.9454         0.021543   
    218. D(C  21,C  22,C  20,C  24)    179.6558         0.021543   
    219. D(C  21,C  22,C  20,C  17)     -0.0756         0.021543   
    220. D(N   9,C  23,C  18,N   7)    177.6503         0.011825   
    221. D(O   4,C  23,C  18,C  15)    177.6121         0.011825   
    222. D(O   4,C  23,C  18,N   7)     -1.8866         0.011825   
    223. D(C  18,C  23,N   9,H  45)   -174.3802         0.026126   
    224. D(C  18,C  23,N   9,C  26)     -2.6745         0.026126   
    225. D(O   4,C  23,N   9,H  45)      5.1683         0.026126   
    226. D(N   9,C  23,C  18,C  15)     -2.8509         0.011825   
    227. D(O   4,C  23,N   9,C  26)    176.8740         0.026126   
    228. D(H  41,C  24,C  20,C  17)   -120.5670         0.012421   
    229. D(H  40,C  24,C  20,C  22)    -59.1499         0.012421   
    230. D(H  40,C  24,C  20,C  17)    120.5837         0.012421   
    231. D(H  39,C  24,C  20,C  22)   -179.5833         0.012421   
    232. D(H  39,C  24,C  20,C  17)      0.1503         0.012421   
    233. D(H  44,C  25,C  22,C  20)     59.7963         0.012265   
    234. D(H  43,C  25,C  22,C  21)    120.5040         0.012265   
    235. D(H  43,C  25,C  22,C  20)    -59.5175         0.012265   
    236. D(H  42,C  25,C  22,C  21)      0.1562         0.012265   
    237. D(H  42,C  25,C  22,C  20)   -179.8654         0.012265   
    238. D(N   8,C  26,N   9,H  45)   -178.0374         0.025040   
    239. D(N   8,C  26,N   9,C  23)     10.1682         0.025040   
    240. D(O   5,C  26,N   9,H  45)      3.9808         0.025040   
    241. D(O   5,C  26,N   9,C  23)   -167.8136         0.025040   
    242. D(N   9,C  26,N   8,C  15)    -12.0488         0.026868   
    243. D(O   5,C  26,N   8,C  15)    165.8416         0.026868   
    -----------------------------------------------------------------

Number of atoms                         .... 47
Number of degrees of freedom            .... 243


         *************************************************************
         *                GEOMETRY OPTIMIZATION CYCLE   1            *
         *************************************************************
---------------------------------
CARTESIAN COORDINATES (ANGSTROEM)
---------------------------------
  O      1.677970    0.779308   -1.236293
  O     -0.912241    1.117785   -1.705076
  O     -0.196832   -1.320830   -4.295699
  O     -3.018640    0.719275   -3.228441
  O     -4.151848    0.343775    2.469822
  O     -4.113038   -1.233022   -1.755764
  N     -0.059255   -0.750485    0.272503
  N     -1.328657    0.361827    2.454862
  N     -2.101033   -1.182676   -0.686492
  N     -4.104081   -0.577724    0.398763
  C      0.982803   -0.238205   -1.887438
  C      0.575068   -1.304022   -0.898522
  C     -0.167228    0.396458   -2.623799
  C     -1.004553   -0.577462   -3.419240
  C      0.701352   -0.263034    1.320549
  C     -1.411194   -0.706204    0.302314
  C      0.042071    0.302474    2.410527
  C      2.097663   -0.316287    1.343035
  C     -2.015536   -0.111371    1.484774
  C     -2.113046    0.159837   -4.138884
  C      2.815746    0.183916    2.402427
  C      0.779683    0.810414    3.493666
  C      2.147702    0.764012    3.512373
  C     -3.514901   -0.075479    1.546420
  C      4.319103    0.118500    2.376470
  C      2.925842    1.314222    4.679509
  C     -3.459381   -1.029629   -0.746563
  H      1.652937   -0.721633   -2.611994
  H     -0.106923   -2.011777   -1.353155
  H      1.455916   -1.852766   -0.578990
  H      0.292968    1.091599   -3.341324
  H     -1.476782   -1.280244   -2.741517
  H      2.623202   -0.723039    0.499906
  H     -1.703755    0.976451   -4.741464
  H     -2.607048   -0.537387   -4.822268
  H      0.213262    1.236450    4.311057
  H      1.032463    1.453175   -1.000731
  H     -1.798362    1.240215   -2.088223
  H      0.149694   -0.730099   -4.971370
  H      4.675853   -0.345927    1.458995
  H      4.747749    1.120674    2.445076
  H      4.694119   -0.456227    3.226534
  H      2.253372    1.715768    5.436174
  H      3.538795    0.537282    5.142138
  H      3.598599    2.113031    4.358972
  H     -5.108546   -0.504413    0.333112
  H     -3.521055   -0.006507   -2.806733

----------------------------
CARTESIAN COORDINATES (A.U.)
----------------------------
  NO LB      ZA    FRAG     MASS         X           Y           Z
   0 O     8.0000    0    15.999    3.170905    1.472679   -2.336254
   1 O     8.0000    0    15.999   -1.723887    2.112307   -3.222126
   2 O     8.0000    0    15.999   -0.371958   -2.496008   -8.117694
   3 O     8.0000    0    15.999   -5.704402    1.359233   -6.100870
   4 O     8.0000    0    15.999   -7.845855    0.649641    4.667287
   5 O     8.0000    0    15.999   -7.772516   -2.330074   -3.317913
   6 N     7.0000    0    14.007   -0.111975   -1.418212    0.514957
   7 N     7.0000    0    14.007   -2.510797    0.683755    4.639017
   8 N     7.0000    0    14.007   -3.970377   -2.234934   -1.297282
   9 N     7.0000    0    14.007   -7.755588   -1.091740    0.753552
  10 C     6.0000    0    12.011    1.857229   -0.450142   -3.566741
  11 C     6.0000    0    12.011    1.086722   -2.464245   -1.697961
  12 C     6.0000    0    12.011   -0.316015    0.749198   -4.958262
  13 C     6.0000    0    12.011   -1.898331   -1.091245   -6.461428
  14 C     6.0000    0    12.011    1.325364   -0.497061    2.495477
  15 C     6.0000    0    12.011   -2.666770   -1.334533    0.571290
  16 C     6.0000    0    12.011    0.079503    0.571593    4.555235
  17 C     6.0000    0    12.011    3.964008   -0.597697    2.537969
  18 C     6.0000    0    12.011   -3.808812   -0.210460    2.805815
  19 C     6.0000    0    12.011   -3.993078    0.302049   -7.821357
  20 C     6.0000    0    12.011    5.320989    0.347551    4.539929
  21 C     6.0000    0    12.011    1.473387    1.531461    6.602073
  22 C     6.0000    0    12.011    4.058569    1.443773    6.637423
  23 C     6.0000    0    12.011   -6.642201   -0.142634    2.922310
  24 C     6.0000    0    12.011    8.161922    0.223932    4.490878
  25 C     6.0000    0    12.011    5.529040    2.483520    8.842991
  26 C     6.0000    0    12.011   -6.537282   -1.945717   -1.410799
  27 H     1.0000    0     1.008    3.123598   -1.363689   -4.935954
  28 H     1.0000    0     1.008   -0.202056   -3.801707   -2.557092
  29 H     1.0000    0     1.008    2.751283   -3.501219   -1.094132
  30 H     1.0000    0     1.008    0.553630    2.062824   -6.314187
  31 H     1.0000    0     1.008   -2.790713   -2.419310   -5.180717
  32 H     1.0000    0     1.008    4.957133   -1.366346    0.944685
  33 H     1.0000    0     1.008   -3.219630    1.845224   -8.960068
  34 H     1.0000    0     1.008   -4.926606   -1.015515   -9.112766
  35 H     1.0000    0     1.008    0.403008    2.336553    8.146718
  36 H     1.0000    0     1.008    1.951073    2.746103   -1.891107
  37 H     1.0000    0     1.008   -3.398411    2.343666   -3.946169
  38 H     1.0000    0     1.008    0.282881   -1.379688   -9.394528
  39 H     1.0000    0     1.008    8.836082   -0.653707    2.757102
  40 H     1.0000    0     1.008    8.971945    2.117767    4.620524
  41 H     1.0000    0     1.008    8.870599   -0.862144    6.097265
  42 H     1.0000    0     1.008    4.258256    3.242332   10.272880
  43 H     1.0000    0     1.008    6.687353    1.015316    9.717232
  44 H     1.0000    0     1.008    6.800367    3.993050    8.237264
  45 H     1.0000    0     1.008   -9.653754   -0.953202    0.629491
  46 H     1.0000    0     1.008   -6.653830   -0.012296   -5.303956

--------------------------------
INTERNAL COORDINATES (ANGSTROEM)
--------------------------------
 O      0   0   0     0.000000000000     0.00000000     0.00000000
 O      1   0   0     2.653963392437     0.00000000     0.00000000
 O      2   1   0     3.629047051330    81.25673478     0.00000000
 O      2   1   3     2.629898489413   149.84769849   349.96725767
 O      2   1   3     5.340778160607   115.81390135   125.29015189
 O      4   2   1     2.679170238810    96.84547625   102.22213204
 N      1   2   3     2.763093359838    63.47686620   265.21119926
 N      7   1   2     2.758860247751   119.86875870   280.27256833
 N      6   4   2     2.279044019255    83.17576054   349.09934147
 N      6   4   2     2.251994562192   108.19317788    47.38205537
 C      1   2   3     1.393765107593    61.56234005   336.68289083
 C      7   1   2     1.442244677360    59.50944668    98.06709910
 C      2   1   3     1.385427503903    61.69910964   350.06501789
 C      3   2   1     1.404703180201    23.88355548   161.49804803
 C      7   1   2     1.383666266124    82.70052564   230.15598550
 C      9   6   4     1.296395128326   146.69375150    93.50998554
 C      8   7   1     1.372728621839    59.83920455   299.68317874
 C     15   7   1     1.397506668153   123.22965840   309.58255144
 C      8   7   1     1.279371538587    59.87442719   120.28438481
 C      4   2   1     1.400705339273    85.36514718   353.31277660
 C     18  15   7     1.374102782186   121.37716800   179.77590499
 C     17   8   7     1.405441550466   118.91708571   180.28143068
 C     22  17   8     1.368934135968   121.51725408   179.21169192
 C      5   2   1     1.197558298245    28.99845081   276.14127587
 C     21  18  15     1.505003433840   119.53085929   180.67081001
 C     23  22  17     1.506797976767   120.94942239   179.91268902
 C      6   4   2     1.219476756155    96.56929292    16.11502432
 H     11   1   2     1.098983046383   108.96639099   146.01516065
 H     12   7   1     1.082921701415   108.34429791   212.70607400
 H     12   7   1     1.085869884513   108.16789994    96.21677551
 H     13   2   1     1.099928716597   109.17949632   273.91329623
 H     14   3   2     1.084532424527   107.29859853   243.01540276
 H     18  15   7     1.073548160709   119.40085606     2.07679963
 H     20   4   2     1.094293836459   107.55898553   274.18230747
 H     20   4   2     1.094154585455   111.62766363   156.50567697
 H     22  17   8     1.081881115660   116.73175888   359.37101338
 H      1   2   3     0.962426811173    45.51991366   162.06475675
 H      2   1   3     0.973139267592   166.98127209   317.86658977
 H      3   2   1     0.962067952810    99.19241144   277.35417506
 H     25  21  18     1.088449935795   111.12999294     0.15034012
 H     25  21  18     1.092152267612   110.55338316   120.58371650
 H     25  21  18     1.092499324031   110.63019709   239.43304220
 H     26  23  22     1.089034452997   110.72814848     0.15619728
 H     26  23  22     1.092415752216   110.98291780   120.50404055
 H     26  23  22     1.092447780129   110.96243008   239.81792899
 H     10   6   4     1.009274971950    87.41772120   110.47142753
 H      4   2   1     0.978273415543   105.90624631   101.15951131

---------------------------
INTERNAL COORDINATES (A.U.)
---------------------------
 O      0   0   0     0.000000000000     0.00000000     0.00000000
 O      1   0   0     5.015263981159     0.00000000     0.00000000
 O      2   1   0     6.857905054128    81.25673478     0.00000000
 O      2   1   3     4.969787905005   149.84769849   349.96725767
 O      2   1   3    10.092608065576   115.81390135   125.29015189
 O      4   2   1     5.062898017503    96.84547625   102.22213204
 N      1   2   3     5.221489732550    63.47686620   265.21119926
 N      7   1   2     5.213490310011   119.86875870   280.27256833
 N      6   4   2     4.306769043543    83.17576054   349.09934147
 N      6   4   2     4.255652977623   108.19317788    47.38205537
 C      1   2   3     2.633834348367    61.56234005   336.68289083
 C      7   1   2     2.725447458315    59.50944668    98.06709910
 C      2   1   3     2.618078560778    61.69910964   350.06501789
 C      3   2   1     2.654504310029    23.88355548   161.49804803
 C      7   1   2     2.614750303720    82.70052564   230.15598550
 C      9   6   4     2.449831753886   146.69375150    93.50998554
 C      8   7   1     2.594081151470    59.83920455   299.68317874
 C     15   7   1     2.640904873138   123.22965840   309.58255144
 C      8   7   1     2.417661831464    59.87442719   120.28438481
 C      4   2   1     2.646949485548    85.36514718   353.31277660
 C     18  15   7     2.596677938190   121.37716800   179.77590499
 C     17   8   7     2.655899627614   118.91708571   180.28143068
 C     22  17   8     2.586910612356   121.51725408   179.21169192
 C      5   2   1     2.263057213088    28.99845081   276.14127587
 C     21  18  15     2.844044320569   119.53085929   180.67081001
 C     23  22  17     2.847435515236   120.94942239   179.91268902
 C      6   4   2     2.304477095815    96.56929292    16.11502432
 H     11   1   2     2.076776983487   108.96639099   146.01516065
 H     12   7   1     2.046425440154   108.34429791   212.70607400
 H     12   7   1     2.051996698802   108.16789994    96.21677551
 H     13   2   1     2.078564041204   109.17949632   273.91329623
 H     14   3   2     2.049469265713   107.29859853   243.01540276
 H     18  15   7     2.028712015315   119.40085606     2.07679963
 H     20   4   2     2.067915660946   107.55898553   274.18230747
 H     20   4   2     2.067652514683   111.62766363   156.50567697
 H     22  17   8     2.044459018059   116.73175888   359.37101338
 H      1   2   3     1.818723097060    45.51991366   162.06475675
 H      2   1   3     1.838966705914   166.98127209   317.86658977
 H      3   2   1     1.818044953034    99.19241144   277.35417506
 H     25  21  18     2.056872289137   111.12999294     0.15034012
 H     25  21  18     2.063868682327   110.55338316   120.58371650
 H     25  21  18     2.064524523913   110.63019709   239.43304220
 H     26  23  22     2.057976866569   110.72814848     0.15619728
 H     26  23  22     2.064366596071   110.98291780   120.50404055
 H     26  23  22     2.064427120054   110.96243008   239.81792899
 H     10   6   4     1.907253290807    87.41772120   110.47142753
 H      4   2   1     1.848668839471   105.90624631   101.15951131

---------------------
BASIS SET INFORMATION
---------------------
There are 4 groups of distinct atoms

 Group   1 Type O   : 11s6p2d contracted to 5s3p2d pattern {62111/411/11}
 Group   2 Type N   : 11s6p1d contracted to 5s3p1d pattern {62111/411/1}
 Group   3 Type C   : 11s6p1d contracted to 5s3p1d pattern {62111/411/1}
 Group   4 Type H   : 5s contracted to 3s pattern {311}

Atom   0O    basis set group =>   1
Atom   1O    basis set group =>   1
Atom   2O    basis set group =>   1
Atom   3O    basis set group =>   1
Atom   4O    basis set group =>   1
Atom   5O    basis set group =>   1
Atom   6N    basis set group =>   2
Atom   7N    basis set group =>   2
Atom   8N    basis set group =>   2
Atom   9N    basis set group =>   2
Atom  10C    basis set group =>   3
Atom  11C    basis set group =>   3
Atom  12C    basis set group =>   3
Atom  13C    basis set group =>   3
Atom  14C    basis set group =>   3
Atom  15C    basis set group =>   3
Atom  16C    basis set group =>   3
Atom  17C    basis set group =>   3
Atom  18C    basis set group =>   3
Atom  19C    basis set group =>   3
Atom  20C    basis set group =>   3
Atom  21C    basis set group =>   3
Atom  22C    basis set group =>   3
Atom  23C    basis set group =>   3
Atom  24C    basis set group =>   3
Atom  25C    basis set group =>   3
Atom  26C    basis set group =>   3
Atom  27H    basis set group =>   4
Atom  28H    basis set group =>   4
Atom  29H    basis set group =>   4
Atom  30H    basis set group =>   4
Atom  31H    basis set group =>   4
Atom  32H    basis set group =>   4
Atom  33H    basis set group =>   4
Atom  34H    basis set group =>   4
Atom  35H    basis set group =>   4
Atom  36H    basis set group =>   4
Atom  37H    basis set group =>   4
Atom  38H    basis set group =>   4
Atom  39H    basis set group =>   4
Atom  40H    basis set group =>   4
Atom  41H    basis set group =>   4
Atom  42H    basis set group =>   4
Atom  43H    basis set group =>   4
Atom  44H    basis set group =>   4
Atom  45H    basis set group =>   4
Atom  46H    basis set group =>   4
---------------------------------
AUXILIARY/J BASIS SET INFORMATION
---------------------------------
There are 4 groups of distinct atoms

 Group   1 Type O   : 8s3p3d contracted to 6s3p3d pattern {311111/111/111}
 Group   2 Type N   : 8s3p3d contracted to 6s3p3d pattern {311111/111/111}
 Group   3 Type C   : 8s3p3d contracted to 6s3p3d pattern {311111/111/111}
 Group   4 Type H   : 5s2p contracted to 3s1p pattern {311/2}

Atom   0O    basis set group =>   1
Atom   1O    basis set group =>   1
Atom   2O    basis set group =>   1
Atom   3O    basis set group =>   1
Atom   4O    basis set group =>   1
Atom   5O    basis set group =>   1
Atom   6N    basis set group =>   2
Atom   7N    basis set group =>   2
Atom   8N    basis set group =>   2
Atom   9N    basis set group =>   2
Atom  10C    basis set group =>   3
Atom  11C    basis set group =>   3
Atom  12C    basis set group =>   3
Atom  13C    basis set group =>   3
Atom  14C    basis set group =>   3
Atom  15C    basis set group =>   3
Atom  16C    basis set group =>   3
Atom  17C    basis set group =>   3
Atom  18C    basis set group =>   3
Atom  19C    basis set group =>   3
Atom  20C    basis set group =>   3
Atom  21C    basis set group =>   3
Atom  22C    basis set group =>   3
Atom  23C    basis set group =>   3
Atom  24C    basis set group =>   3
Atom  25C    basis set group =>   3
Atom  26C    basis set group =>   3
Atom  27H    basis set group =>   4
Atom  28H    basis set group =>   4
Atom  29H    basis set group =>   4
Atom  30H    basis set group =>   4
Atom  31H    basis set group =>   4
Atom  32H    basis set group =>   4
Atom  33H    basis set group =>   4
Atom  34H    basis set group =>   4
Atom  35H    basis set group =>   4
Atom  36H    basis set group =>   4
Atom  37H    basis set group =>   4
Atom  38H    basis set group =>   4
Atom  39H    basis set group =>   4
Atom  40H    basis set group =>   4
Atom  41H    basis set group =>   4
Atom  42H    basis set group =>   4
Atom  43H    basis set group =>   4
Atom  44H    basis set group =>   4
Atom  45H    basis set group =>   4
Atom  46H    basis set group =>   4


           ************************************************************
           *        Program running with 16 parallel MPI-processes    *
           *              working on a common directory               *
           ************************************************************
------------------------------------------------------------------------------
                             ORCA STARTUP CALCULATIONS
                           -- RI-GTO INTEGRALS CHOSEN --
------------------------------------------------------------------------------
------------------------------------------------------------------------------
                   ___                                                        
                  /   \      - P O W E R E D   B Y -                         
                 /     \                                                     
                 |  |  |   _    _      __       _____    __    __             
                 |  |  |  | |  | |    /  \     |  _  \  |  |  /  |          
                  \  \/   | |  | |   /    \    | | | |  |  | /  /          
                 / \  \   | |__| |  /  /\  \   | |_| |  |  |/  /          
                |  |  |   |  __  | /  /__\  \  |    /   |      \           
                |  |  |   | |  | | |   __   |  |    \   |  |\   \          
                \     /   | |  | | |  |  |  |  | |\  \  |  | \   \       
                 \___/    |_|  |_| |__|  |__|  |_| \__\ |__|  \__/        
                                                                              
                      - O R C A' S   B I G   F R I E N D -                    
                                      &                                       
                       - I N T E G R A L  F E E D E R -                       
                                                                              
 v1 FN, 2020, v2 2021, v3 2022-2024                                           
------------------------------------------------------------------------------


----------------------
SHARK INTEGRAL PACKAGE
----------------------

Number of atoms                             ...     47
Number of basis functions                   ...    603
Number of shells                            ...    309
Maximum angular momentum                    ...      2
Integral batch strategy                     ... SHARK/LIBINT Hybrid
RI-J (if used) integral strategy            ... SPLIT-RIJ (Revised 2003 algorithm where possible)
Printlevel                                  ...      1
Contraction scheme used                     ... SEGMENTED contraction
Prescreening option                         ... SCHWARTZ
   Thresh                                   ... 2.500e-11
   Tcut                                     ... 2.500e-12
   Tpresel                                  ... 2.500e-12 
Coulomb Range Separation                    ... NOT USED
Exchange Range Separation                   ... NOT USED
Multipole approximations                    ... NOT USED
Finite Nucleus Model                        ... NOT USED
CABS basis                                  ... NOT available
Auxiliary Coulomb fitting basis             ... AVAILABLE
   # of basis functions in Aux-J            ...    930
   # of shells in Aux-J                     ...    404
   Maximum angular momentum in Aux-J        ...      2
Auxiliary J/K fitting basis                 ... NOT available
Auxiliary Correlation fitting basis         ... NOT available
Auxiliary 'external' fitting basis          ... NOT available

Checking pre-screening integrals            ... done (  0.0 sec) Dimension = 309
Check shell pair data                       ... done (  0.0 sec)
Shell pair information
Shell pair cut-off parameter TPreSel        ...   2.5e-12
Total number of shell pairs                 ...     47895
Shell pairs after pre-screening             ...     34289
Total number of primitive shell pairs       ...    176182
Primitive shell pairs kept                  ...     78067
          la=0 lb=0:  12505 shell pairs
          la=1 lb=0:  12077 shell pairs
          la=1 lb=1:   2856 shell pairs
          la=2 lb=0:   4316 shell pairs
          la=2 lb=1:   2132 shell pairs
          la=2 lb=2:    403 shell pairs

Calculating one electron integrals          ... done (  0.0 sec)
Calculating RI/J V-Matrix + Cholesky decomp.... done (  0.0 sec)
Calculating Nuclear repulsion               ... done (  0.0 sec) ENN=   2732.006225510465 Eh

Diagonalization of the overlap matrix:
Smallest eigenvalue                        ... 4.644e-06
Time for diagonalization                   ...    0.037 sec
Threshold for overlap eigenvalues          ... 1.000e-07
Number of eigenvalues below threshold      ... 0
Time for construction of square roots      ...    0.023 sec
Total time needed                          ...    0.065 sec

-------------------
DFT GRID GENERATION
-------------------

General Integration Accuracy     IntAcc      ... 4.959
Radial Grid Type                 RadialGrid  ... OptM3 with GC (2021)
Angular Grid (max. ang.)         AngularGrid ... 6 (Lebedev-590)
Angular grid pruning method      GridPruning ... 4 (adaptive)
Weight generation scheme         WeightScheme... mBecke (2022)
Basis function cutoff            BFCut       ... 1.0000e-11
Integration weight cutoff        WCut        ... 1.0000e-14
Partially contracted basis set               ... off
Rotationally invariant grid construction     ... off
Angular grids for H and He will be reduced by one unit
Diffuse basis detected: some atoms will have their outermost
                        angular grid increased by 1.

Total number of grid points                  ...   552628
Total number of batches                      ...     8658
Average number of points per batch           ...       63
Average number of grid points per atom       ...    11758
Initializing property integral containers    ... done (  0.0 sec)

SHARK setup successfully completed in   4.9 seconds

Maximum memory used throughout the entire STARTUP-calculation: 138.2 MB


           ************************************************************
           *        Program running with 16 parallel MPI-processes    *
           *              working on a common directory               *
           ************************************************************
-------------------------------------------------------------------------------
                                 ORCA GUESS
                   Start orbitals & Density for SCF / CASSCF
-------------------------------------------------------------------------------

------------
SCF SETTINGS
------------
Hamiltonian:
 Density Functional     Method          .... DFT(GTOs)
 Exchange Functional    Exchange        .... B973C
 Correlation Functional Correlation     .... B973C
 Gradients option       PostSCFGGA      .... off
 RI-approximation to the Coulomb term is turned on
   Number of AuxJ basis functions       .... 930


General Settings:
 Integral files         IntName         .... m1_00_Vitamin_B2-QM3_0000-B97-3C-TZ
 Hartree-Fock type      HFTyp           .... RHF
 Total Charge           Charge          ....    0
 Multiplicity           Mult            ....    1
 Number of Electrons    NEL             ....  198
 Basis Dimension        Dim             ....  603
 Nuclear Repulsion      ENuc            ....   2732.0062255105 Eh

Convergence Acceleration:
 AO-DIIS                CNVDIIS         .... on
   Start iteration      DIISMaxIt       ....    12
   Startup error        DIISStart       ....  0.200000
   # of expansion vecs  DIISMaxEq       ....     5
   Bias factor          DIISBfac        ....   1.050
   Max. coefficient     DIISMaxC        ....  10.000
 MO-DIIS                CNVKDIIS        .... off
 Trust-Rad. Augm. Hess. CNVTRAH         .... off
 SOSCF                  CNVSOSCF        .... on
   Start iteration      SOSCFMaxIt      ....   150
   Startup grad/error   SOSCFStart      ....  0.003300
   Hessian update       SOSCFHessUp     .... L-BFGS
 Level Shifting         CNVShift        .... on
   Level shift para.    LevelShift      ....    0.2500
   Turn off err/grad.   ShiftErr        ....    0.0010
 Zerner damping         CNVZerner       .... off
 Static damping         CNVDamp         .... on
   Fraction old density DampFac         ....    0.7000
   Max. Damping (<1)    DampMax         ....    0.9800
   Min. Damping (>=0)   DampMin         ....    0.0000
   Turn off err/grad.   DampErr         ....    0.1000

SCF Procedure:
 Maximum # iterations   MaxIter         ....   800
 SCF integral mode      SCFMode         .... Direct
   Integral package                     .... SHARK and LIBINT hybrid scheme
 Reset frequency        DirectResetFreq ....    20
 Integral Threshold     Thresh          ....  2.500e-11 Eh
 Primitive CutOff       TCut            ....  2.500e-12 Eh

Convergence Tolerance:
 Convergence Check Mode ConvCheckMode   .... Total+1el-Energy
 Convergence forced     ConvForced      .... 0
 Energy Change          TolE            ....  1.000e-08 Eh
 1-El. energy change                    ....  1.000e-05 Eh
 Orbital Gradient       TolG            ....  1.000e-05
 Orbital Rotation angle TolX            ....  1.000e-05
 DIIS Error             TolErr          ....  5.000e-07

--------------------------------
INITIAL GUESS: MINIMAL BASIS EHT
--------------------------------
The minimal basis has 155 functions
EHT matrix was diagonalized
Basis set overlap was calculated now projecting the orbitals
Using GuessMode=FMatrix for the initial guess
C*T matrix was formed
Effective Fockian was calculated
Effective Fockian was diagonalized
Initial density was built
                      ------------------
                      INITIAL GUESS DONE
                      ------------------
             **** ENERGY FILE WAS UPDATED (m1_00_Vitamin_B2-QM3_0000-B97-3C-TZ.en.tmp) ****
Finished Guess after   0.5 sec
Maximum memory used throughout the entire GUESS-calculation: 59.5 MB


           ************************************************************
           *        Program running with 16 parallel MPI-processes    *
           *              working on a common directory               *
           ************************************************************

-------------------------------------------------------------------------------------------
                                      ORCA LEAN-SCF
                              memory conserving SCF solver
-------------------------------------------------------------------------------------------

----------------------------------------D-I-I-S--------------------------------------------
Iteration    Energy (Eh)           Delta-E    RMSDP     MaxDP     DIISErr   Damp  Time(sec)
-------------------------------------------------------------------------------------------
               ***  Starting incremental Fock matrix formation  ***
    1    -1324.6915481839769200     0.00e+00  7.62e-03  4.09e-01  4.77e-01  0.700   1.6
Warning: op=0 Small HOMO/LUMO gap (   0.026) - skipping pre-diagonalization
         Will do a full diagonalization
    2    -1326.4046327203082001    -1.71e+00  6.79e-03  7.58e-01  3.36e-01  0.700   1.7
    3    -1327.2861498042002495    -8.82e-01  3.90e-03  2.97e-01  2.40e-01  0.700   1.6
                               ***Turning on AO-DIIS***
    4    -1327.8999778147585857    -6.14e-01  2.84e-03  2.30e-01  1.69e-01  0.700   1.6
    5    -1328.3292134025009545    -4.29e-01  2.05e-03  1.60e-01  1.16e-01  0.700   1.6
    6    -1328.6333887032856182    -3.04e-01  1.37e-03  1.11e-01  8.01e-02  0.700   1.6
    7    -1328.8489119416713038    -2.16e-01  3.06e-03  2.41e-01  5.62e-02  0.000   1.6
    8    -1329.3472570465946774    -4.98e-01  4.63e-04  3.83e-02  2.08e-02  0.000   1.6
    9    -1329.3507095698796547    -3.45e-03  1.79e-04  1.92e-02  1.04e-02  0.000   1.6
   10    -1329.3509221134463587    -2.13e-04  6.04e-05  3.94e-03  5.40e-03  0.000   1.6
                              *** Initializing SOSCF ***
---------------------------------------S-O-S-C-F--------------------------------------
Iteration    Energy (Eh)           Delta-E    RMSDP     MaxDP     MaxGrad    Time(sec)
--------------------------------------------------------------------------------------
   11    -1329.3511347446583386    -2.13e-04  3.47e-05  3.38e-03  1.27e-03     1.7
               *** Restarting incremental Fock matrix formation ***
   12    -1329.3511461897464869    -1.14e-05  1.31e-04  1.32e-02  8.97e-05     1.7
   13    -1329.3511421860430346     4.00e-06  2.30e-05  2.62e-03  2.75e-04     1.5
   14    -1329.3511477228107651    -5.54e-06  3.88e-05  4.38e-03  2.71e-05     1.5
   15    -1329.3511473202274829     4.03e-07  1.24e-05  9.91e-04  5.83e-05     1.5
   16    -1329.3511478375426123    -5.17e-07  2.97e-05  2.73e-03  1.15e-05     1.5
   17    -1329.3511477991182801     3.84e-08  1.04e-05  1.02e-03  2.54e-05     1.4
   18    -1329.3511478752361654    -7.61e-08  1.55e-05  1.21e-03  1.65e-06     1.4
                  *** Gradient check signals convergence ***

               *****************************************************
               *                     SUCCESS                       *
               *           SCF CONVERGED AFTER  18 CYCLES          *
               *****************************************************

             **** ENERGY FILE WAS UPDATED (m1_00_Vitamin_B2-QM3_0000-B97-3C-TZ.en.tmp) ****

----------------
TOTAL SCF ENERGY
----------------

Total Energy       :      -1329.35114787523617 Eh          -36173.48376 eV

Components:
Nuclear Repulsion  :       2732.00622551046536 Eh           74341.66885 eV
Electronic Energy  :      -4061.35737338570152 Eh         -110515.15261 eV
One Electron Energy:      -7248.27842634987155 Eh         -197235.68325 eV
Two Electron Energy:       3186.92105296417003 Eh           86720.53064 eV

Virial components:
Potential Energy   :      -2654.64620537511018 Eh          -72236.59569 eV
Kinetic Energy     :       1325.29505749987379 Eh           36063.11193 eV
Virial Ratio       :          2.00306051875196

DFT components:
N(Alpha)           :       99.000002413336 electrons
N(Beta)            :       99.000002413336 electrons
N(Total)           :      198.000004826672 electrons
E(XC)              :     -178.279680432398 Eh       

---------------
SCF CONVERGENCE
---------------

  Last Energy change         ...    7.6118e-08  Tolerance :   1.0000e-08
  Last MAX-Density change    ...    1.2068e-03  Tolerance :   1.0000e-07
  Last RMS-Density change    ...    1.5536e-05  Tolerance :   5.0000e-09
  Last DIIS Error            ...    1.2675e-03  Tolerance :   5.0000e-07
  Last Orbital Gradient      ...    1.6504e-06  Tolerance :   1.0000e-05
  Last Orbital Rotation      ...    8.1630e-06  Tolerance :   1.0000e-05


----------------
ORBITAL ENERGIES
----------------

  NO   OCC          E(Eh)            E(eV) 
   0   2.0000     -18.756485      -510.3899 
   1   2.0000     -18.752427      -510.2795 
   2   2.0000     -18.747130      -510.1353 
   3   2.0000     -18.740611      -509.9579 
   4   2.0000     -18.731202      -509.7019 
   5   2.0000     -18.730634      -509.6865 
   6   2.0000     -14.084463      -383.2577 
   7   2.0000     -14.041585      -382.0910 
   8   2.0000     -14.020825      -381.5260 
   9   2.0000     -13.982701      -380.4886 
  10   2.0000     -10.028125      -272.8792 
  11   2.0000     -10.009238      -272.3652 
  12   2.0000      -9.999870      -272.1103 
  13   2.0000      -9.970947      -271.3233 
  14   2.0000      -9.963094      -271.1096 
  15   2.0000      -9.952868      -270.8313 
  16   2.0000      -9.952045      -270.8089 
  17   2.0000      -9.943955      -270.5888 
  18   2.0000      -9.940993      -270.5082 
  19   2.0000      -9.936174      -270.3770 
  20   2.0000      -9.931949      -270.2621 
  21   2.0000      -9.931017      -270.2367 
  22   2.0000      -9.924371      -270.0559 
  23   2.0000      -9.916779      -269.8493 
  24   2.0000      -9.913930      -269.7717 
  25   2.0000      -9.910000      -269.6648 
  26   2.0000      -9.907488      -269.5965 
  27   2.0000      -1.002286       -27.2736 
  28   2.0000      -0.986444       -26.8425 
  29   2.0000      -0.979948       -26.6657 
  30   2.0000      -0.968493       -26.3540 
  31   2.0000      -0.959967       -26.1220 
  32   2.0000      -0.952501       -25.9189 
  33   2.0000      -0.939470       -25.5643 
  34   2.0000      -0.892452       -24.2848 
  35   2.0000      -0.885605       -24.0985 
  36   2.0000      -0.844261       -22.9735 
  37   2.0000      -0.813849       -22.1460 
  38   2.0000      -0.745343       -20.2818 
  39   2.0000      -0.735282       -20.0081 
  40   2.0000      -0.726619       -19.7723 
  41   2.0000      -0.695430       -18.9236 
  42   2.0000      -0.679608       -18.4931 
  43   2.0000      -0.670295       -18.2396 
  44   2.0000      -0.651124       -17.7180 
  45   2.0000      -0.631263       -17.1775 
  46   2.0000      -0.613897       -16.7050 
  47   2.0000      -0.596393       -16.2287 
  48   2.0000      -0.575682       -15.6651 
  49   2.0000      -0.574046       -15.6206 
  50   2.0000      -0.558872       -15.2077 
  51   2.0000      -0.555140       -15.1061 
  52   2.0000      -0.528095       -14.3702 
  53   2.0000      -0.519716       -14.1422 
  54   2.0000      -0.510642       -13.8953 
  55   2.0000      -0.485987       -13.2244 
  56   2.0000      -0.482890       -13.1401 
  57   2.0000      -0.476902       -12.9772 
  58   2.0000      -0.471783       -12.8379 
  59   2.0000      -0.460837       -12.5400 
  60   2.0000      -0.456293       -12.4164 
  61   2.0000      -0.441126       -12.0036 
  62   2.0000      -0.435252       -11.8438 
  63   2.0000      -0.428278       -11.6540 
  64   2.0000      -0.417115       -11.3503 
  65   2.0000      -0.415818       -11.3150 
  66   2.0000      -0.412022       -11.2117 
  67   2.0000      -0.403809       -10.9882 
  68   2.0000      -0.401568       -10.9272 
  69   2.0000      -0.394274       -10.7288 
  70   2.0000      -0.388892       -10.5823 
  71   2.0000      -0.386807       -10.5256 
  72   2.0000      -0.379677       -10.3315 
  73   2.0000      -0.377851       -10.2819 
  74   2.0000      -0.373803       -10.1717 
  75   2.0000      -0.370892       -10.0925 
  76   2.0000      -0.368151       -10.0179 
  77   2.0000      -0.366092        -9.9619 
  78   2.0000      -0.361759        -9.8440 
  79   2.0000      -0.345533        -9.4024 
  80   2.0000      -0.337433        -9.1820 
  81   2.0000      -0.335801        -9.1376 
  82   2.0000      -0.332345        -9.0436 
  83   2.0000      -0.324567        -8.8319 
  84   2.0000      -0.319717        -8.6999 
  85   2.0000      -0.304401        -8.2832 
  86   2.0000      -0.284574        -7.7436 
  87   2.0000      -0.275585        -7.4991 
  88   2.0000      -0.272717        -7.4210 
  89   2.0000      -0.264266        -7.1910 
  90   2.0000      -0.259124        -7.0511 
  91   2.0000      -0.254893        -6.9360 
  92   2.0000      -0.253751        -6.9049 
  93   2.0000      -0.240650        -6.5484 
  94   2.0000      -0.232060        -6.3147 
  95   2.0000      -0.227178        -6.1818 
  96   2.0000      -0.218901        -5.9566 
  97   2.0000      -0.215173        -5.8552 
  98   2.0000      -0.210992        -5.7414 
  99   0.0000      -0.128804        -3.5049 
 100   0.0000      -0.070579        -1.9206 
 101   0.0000      -0.046674        -1.2701 
 102   0.0000      -0.023554        -0.6409 
 103   0.0000      -0.008434        -0.2295 
 104   0.0000       0.002891         0.0787 
 105   0.0000       0.009625         0.2619 
 106   0.0000       0.019988         0.5439 
 107   0.0000       0.029943         0.8148 
 108   0.0000       0.040595         1.1046 
 109   0.0000       0.049443         1.3454 
*Only the first 10 virtual orbitals were printed.

                    ********************************
                    * MULLIKEN POPULATION ANALYSIS *
                    ********************************

-----------------------
MULLIKEN ATOMIC CHARGES
-----------------------
   0 O :   -0.575170
   1 O :   -0.616501
   2 O :   -0.542148
   3 O :   -0.604144
   4 O :   -0.335509
   5 O :   -0.501644
   6 N :    0.058328
   7 N :    0.047524
   8 N :   -0.257256
   9 N :   -0.381886
  10 C :    0.173891
  11 C :   -0.538327
  12 C :    0.092091
  13 C :   -0.259460
  14 C :    0.030466
  15 C :    0.133936
  16 C :   -0.030130
  17 C :   -0.131956
  18 C :    0.079834
  19 C :   -0.121211
  20 C :    0.074237
  21 C :   -0.236728
  22 C :    0.183849
  23 C :    0.148130
  24 C :   -0.643423
  25 C :   -0.642927
  26 C :    0.358860
  27 H :    0.151695
  28 H :    0.258701
  29 H :    0.245902
  30 H :    0.154472
  31 H :    0.260625
  32 H :    0.243521
  33 H :    0.140805
  34 H :    0.182475
  35 H :    0.203120
  36 H :    0.439282
  37 H :    0.436712
  38 H :    0.427318
  39 H :    0.192465
  40 H :    0.183243
  41 H :    0.180749
  42 H :    0.196225
  43 H :    0.178067
  44 H :    0.179129
  45 H :    0.361077
  46 H :    0.421689
Sum of atomic charges:    0.0000000

--------------------------------
MULLIKEN REDUCED ORBITAL CHARGES
--------------------------------
  0 O s       :     3.807456  s :     3.807456
      pz      :     1.742193  p :     4.743723
      px      :     1.624666
      py      :     1.376864
      dz2     :     0.000051  d :     0.023991
      dxz     :     0.008710
      dyz     :     0.003079
      dx2y2   :    -0.002362
      dxy     :     0.014514

  1 O s       :     3.784776  s :     3.784776
      pz      :     1.616974  p :     4.813279
      px      :     1.441204
      py      :     1.755102
      dz2     :    -0.001217  d :     0.018447
      dxz     :     0.003571
      dyz     :     0.007194
      dx2y2   :     0.002701
      dxy     :     0.006198

  2 O s       :     3.803379  s :     3.803379
      pz      :     1.452324  p :     4.701425
      px      :     1.650224
      py      :     1.598877
      dz2     :     0.001771  d :     0.037344
      dxz     :     0.006843
      dyz     :     0.016021
      dx2y2   :     0.004029
      dxy     :     0.008680

  3 O s       :     3.799159  s :     3.799159
      pz      :     1.566310  p :     4.778021
      px      :     1.581560
      py      :     1.630151
      dz2     :    -0.000845  d :     0.026964
      dxz     :     0.003547
      dyz     :     0.009077
      dx2y2   :     0.004713
      dxy     :     0.010473

  4 O s       :     3.840173  s :     3.840173
      pz      :     1.439818  p :     4.465185
      px      :     1.621319
      py      :     1.404048
      dz2     :     0.007071  d :     0.030151
      dxz     :     0.009456
      dyz     :     0.006808
      dx2y2   :     0.002289
      dxy     :     0.004526

  5 O s       :     3.857040  s :     3.857040
      pz      :     1.424180  p :     4.606061
      px      :     1.665148
      py      :     1.516733
      dz2     :     0.009226  d :     0.038543
      dxz     :     0.013196
      dyz     :     0.005263
      dx2y2   :     0.005306
      dxy     :     0.005552

  6 N s       :     3.199523  s :     3.199523
      pz      :     1.197935  p :     3.688004
      px      :     1.098874
      py      :     1.391195
      dz2     :     0.012654  d :     0.054145
      dxz     :     0.015025
      dyz     :     0.007408
      dx2y2   :     0.009455
      dxy     :     0.009603

  7 N s       :     3.467624  s :     3.467624
      pz      :     1.287587  p :     3.436470
      px      :     1.041516
      py      :     1.107366
      dz2     :     0.011888  d :     0.048381
      dxz     :     0.010921
      dyz     :     0.007754
      dx2y2   :     0.009586
      dxy     :     0.008232

  8 N s       :     3.466845  s :     3.466845
      pz      :     1.356018  p :     3.747402
      px      :     1.098841
      py      :     1.292543
      dz2     :     0.010950  d :     0.043009
      dxz     :     0.009068
      dyz     :     0.007197
      dx2y2   :     0.009183
      dxy     :     0.006611

  9 N s       :     3.360247  s :     3.360247
      pz      :     1.190855  p :     3.982452
      px      :     1.256691
      py      :     1.534907
      dz2     :     0.011922  d :     0.039187
      dxz     :     0.009497
      dyz     :     0.006865
      dx2y2   :     0.008107
      dxy     :     0.002795

 10 C s       :     3.004925  s :     3.004925
      pz      :     0.955727  p :     2.746919
      px      :     0.959353
      py      :     0.831838
      dz2     :     0.008806  d :     0.074265
      dxz     :     0.016292
      dyz     :     0.020654
      dx2y2   :     0.010970
      dxy     :     0.017543

 11 C s       :     3.299937  s :     3.299937
      pz      :     0.930555  p :     3.183719
      px      :     1.182165
      py      :     1.070999
      dz2     :     0.010211  d :     0.054671
      dxz     :     0.012404
      dyz     :     0.014306
      dx2y2   :     0.004403
      dxy     :     0.013346

 12 C s       :     3.079956  s :     3.079956
      pz      :     0.942541  p :     2.751776
      px      :     0.926892
      py      :     0.882344
      dz2     :     0.010000  d :     0.076176
      dxz     :     0.019721
      dyz     :     0.019535
      dx2y2   :     0.010341
      dxy     :     0.016579

 13 C s       :     3.237879  s :     3.237879
      pz      :     0.998659  p :     2.949345
      px      :     0.911171
      py      :     1.039514
      dz2     :     0.008859  d :     0.072236
      dxz     :     0.016805
      dyz     :     0.019223
      dx2y2   :     0.009714
      dxy     :     0.017635

 14 C s       :     3.174711  s :     3.174711
      pz      :     0.882496  p :     2.732954
      px      :     0.901424
      py      :     0.949034
      dz2     :     0.013152  d :     0.061868
      dxz     :     0.019132
      dyz     :     0.008629
      dx2y2   :     0.009085
      dxy     :     0.011870

 15 C s       :     3.103026  s :     3.103026
      pz      :     0.826464  p :     2.677267
      px      :     0.933055
      py      :     0.917748
      dz2     :     0.021467  d :     0.085771
      dxz     :     0.020155
      dyz     :     0.010935
      dx2y2   :     0.016620
      dxy     :     0.016594

 16 C s       :     3.153004  s :     3.153004
      pz      :     0.925674  p :     2.814265
      px      :     0.866917
      py      :     1.021673
      dz2     :     0.012803  d :     0.062862
      dxz     :     0.020728
      dyz     :     0.007027
      dx2y2   :     0.011260
      dxy     :     0.011044

 17 C s       :     2.690250  s :     2.690250
      pz      :     1.089686  p :     3.400703
      px      :     1.214821
      py      :     1.096195
      dz2     :     0.008974  d :     0.041003
      dxz     :     0.011895
      dyz     :     0.005711
      dx2y2   :     0.007803
      dxy     :     0.006620

 18 C s       :     3.135353  s :     3.135353
      pz      :     0.916468  p :     2.720990
      px      :     0.827406
      py      :     0.977116
      dz2     :     0.017395  d :     0.063823
      dxz     :     0.016274
      dyz     :     0.009624
      dx2y2   :     0.012659
      dxy     :     0.007872

 19 C s       :     3.198255  s :     3.198255
      pz      :     0.946151  p :     2.856658
      px      :     0.883624
      py      :     1.026883
      dz2     :     0.009087  d :     0.066298
      dxz     :     0.015606
      dyz     :     0.017995
      dx2y2   :     0.008613
      dxy     :     0.014996

 20 C s       :     3.348954  s :     3.348954
      pz      :     0.818510  p :     2.527876
      px      :     0.803129
      py      :     0.906238
      dz2     :     0.011284  d :     0.048932
      dxz     :     0.014583
      dyz     :     0.006853
      dx2y2   :     0.007992
[...]
 95:   1373.69   0.014496   73.26  0.003293  (-0.051303  0.013486  0.021893)
 96:   1385.44   0.006825   34.49  0.001537  ( 0.023676 -0.017698 -0.025758)
 97:   1386.95   0.005079   25.67  0.001143  (-0.031459 -0.000249 -0.012370)
 98:   1390.12   0.003554   17.96  0.000798  (-0.023653  0.004467  0.014779)
 99:   1396.97   0.012705   64.21  0.002838  (-0.051540 -0.013475 -0.000343)
100:   1410.58   0.010378   52.44  0.002296  ( 0.045686 -0.003337  0.014053)
101:   1412.98   0.007866   39.75  0.001737  ( 0.035546 -0.004515  0.021291)
102:   1417.33   0.005739   29.00  0.001264  ( 0.034032  0.010242 -0.000719)
103:   1423.18   0.000580    2.93  0.000127  ( 0.009618  0.001523  0.005682)
104:   1433.67   0.005934   29.99  0.001292  (-0.028136 -0.019221 -0.011431)
105:   1453.43   0.004493   22.70  0.000965  ( 0.024100 -0.007777 -0.017981)
106:   1456.32   0.011033   55.76  0.002364  ( 0.012886 -0.015553 -0.044229)
107:   1478.76   0.000138    0.70  0.000029  ( 0.000519 -0.004817 -0.002394)
108:   1480.11   0.008351   42.20  0.001761  (-0.000617  0.022855  0.035185)
109:   1488.83   0.013804   69.76  0.002893  (-0.027845 -0.035289 -0.029541)
110:   1497.45   0.003921   19.82  0.000817  (-0.014722  0.016298  0.018297)
111:   1498.94   0.004142   20.93  0.000862  (-0.002970 -0.023591  0.017233)
112:   1501.00   0.007117   35.97  0.001480  ( 0.005963 -0.002559 -0.037916)
113:   1505.34   0.001256    6.35  0.000260  (-0.001653  0.008533  0.013593)
114:   1520.08   0.001032    5.21  0.000212  ( 0.014158  0.001873 -0.002804)
115:   1541.74   0.000011    0.05  0.000002  (-0.001352 -0.000589 -0.000148)
116:   1563.33   0.115548  583.93  0.023065  ( 0.133061  0.017090  0.071187)
117:   1591.05   0.142850  721.91  0.028018  (-0.144003 -0.023722 -0.081967)
118:   1658.18   0.004270   21.58  0.000804  ( 0.010773  0.007550  0.025110)
119:   1680.10   0.119054  601.65  0.022113  (-0.080304 -0.023555 -0.122921)
120:   1753.53   0.070798  357.78  0.012599  ( 0.061231 -0.027590 -0.089938)
121:   2859.31   0.018410   93.04  0.002009  ( 0.020671  0.010339 -0.038406)
122:   2973.82   0.020210  102.13  0.002121  (-0.002760 -0.000715 -0.045963)
123:   2998.23   0.004400   22.24  0.000458  ( 0.011959  0.006030  0.016691)
124:   2999.82   0.009835   49.70  0.001023  ( 0.029070  0.003643  0.012837)
125:   3018.75   0.006032   30.48  0.000624  ( 0.012780  0.021448 -0.000459)
126:   3029.49   0.003333   16.84  0.000343  (-0.008264  0.010280  0.013015)
127:   3046.78   0.005369   27.13  0.000550  ( 0.000633 -0.021894  0.008372)
128:   3048.39   0.000671    3.39  0.000069  ( 0.000217 -0.007801  0.002794)
129:   3071.55   0.004516   22.82  0.000459  (-0.014923  0.014774  0.004229)
130:   3093.32   0.001091    5.51  0.000110  (-0.003580 -0.008843  0.004358)
131:   3095.75   0.004299   21.72  0.000433  (-0.010864  0.005949  0.016730)
132:   3099.27   0.002348   11.87  0.000236  (-0.006910  0.004730  0.012896)
133:   3127.60   0.000156    0.79  0.000016  (-0.001557 -0.001691 -0.003202)
134:   3156.79   0.001257    6.35  0.000124  (-0.001563 -0.003401 -0.010501)
135:   3210.90   0.000467    2.36  0.000045  ( 0.005340 -0.003639 -0.001907)
136:   3402.12   0.066800  337.58  0.006127  ( 0.052068  0.025926 -0.052384)
137:   3450.32   0.116468  588.58  0.010534  ( 0.042714 -0.015818  0.091974)
138:   3536.61   0.011097   56.08  0.000979  (-0.030907 -0.000499 -0.004864)
139:   3691.31   0.004992   25.23  0.000422  (-0.007272  0.018879 -0.003562)
140:   3707.83   0.001513    7.65  0.000127  (-0.005450 -0.000250  0.009878)

* The epsilon (eps) is given for a Dirac delta lineshape.
** The dipole moment derivative (T) already includes vibrational overlap.

The first frequency considered to be a vibration is 6
The total number of vibrations considered is 135


--------------------------
THERMOCHEMISTRY AT 298.15K
--------------------------

Temperature         ...   298.15 K
Pressure            ...     1.00 atm
Total Mass          ...   376.37 AMU
Quasi RRHO          ...     True
Cut-Off Frequency   ...     1.00 cm^-1

Throughout the following assumptions are being made:
  (1) The electronic state is orbitally nondegenerate
  (2) There are no thermally accessible electronically excited states
  (3) Hindered rotations indicated by low frequency modes are not
      treated as such but are treated as vibrations and this may
      cause some error
  (4) All equations used are the standard statistical mechanics
      equations for an ideal gas
  (5) All vibrations are strictly harmonic

freq.      30.56  E(vib)   ...       0.55 
freq.      35.18  E(vib)   ...       0.54 
freq.      52.49  E(vib)   ...       0.52 
freq.      64.61  E(vib)   ...       0.50 
freq.      77.62  E(vib)   ...       0.49 
freq.     102.78  E(vib)   ...       0.46 
freq.     109.23  E(vib)   ...       0.45 
freq.     116.67  E(vib)   ...       0.44 
freq.     125.16  E(vib)   ...       0.43 
freq.     136.22  E(vib)   ...       0.42 
freq.     143.19  E(vib)   ...       0.41 
freq.     167.78  E(vib)   ...       0.38 
freq.     169.51  E(vib)   ...       0.38 
freq.     185.99  E(vib)   ...       0.37 
freq.     190.58  E(vib)   ...       0.36 
freq.     208.50  E(vib)   ...       0.34 
freq.     222.69  E(vib)   ...       0.33 
freq.     253.45  E(vib)   ...       0.30 
freq.     260.52  E(vib)   ...       0.30 
freq.     286.77  E(vib)   ...       0.27 
freq.     298.87  E(vib)   ...       0.26 
freq.     308.10  E(vib)   ...       0.26 
freq.     318.37  E(vib)   ...       0.25 
freq.     325.27  E(vib)   ...       0.24 
freq.     339.46  E(vib)   ...       0.23 
freq.     346.39  E(vib)   ...       0.23 
freq.     367.27  E(vib)   ...       0.21 
freq.     395.02  E(vib)   ...       0.20 
freq.     405.59  E(vib)   ...       0.19 
freq.     425.81  E(vib)   ...       0.18 
freq.     436.56  E(vib)   ...       0.17 
freq.     442.58  E(vib)   ...       0.17 
freq.     466.83  E(vib)   ...       0.16 
freq.     481.45  E(vib)   ...       0.15 
freq.     487.66  E(vib)   ...       0.15 
freq.     506.52  E(vib)   ...       0.14 
freq.     508.83  E(vib)   ...       0.14 
freq.     531.18  E(vib)   ...       0.13 
freq.     540.33  E(vib)   ...       0.12 
freq.     573.79  E(vib)   ...       0.11 
freq.     576.57  E(vib)   ...       0.11 
freq.     584.18  E(vib)   ...       0.11 
freq.     609.67  E(vib)   ...       0.10 
freq.     617.36  E(vib)   ...       0.09 
freq.     633.44  E(vib)   ...       0.09 
freq.     671.16  E(vib)   ...       0.08 
freq.     675.54  E(vib)   ...       0.08 
freq.     717.61  E(vib)   ...       0.07 
freq.     745.88  E(vib)   ...       0.06 
freq.     756.54  E(vib)   ...       0.06 
freq.     769.54  E(vib)   ...       0.06 
freq.     776.68  E(vib)   ...       0.05 
freq.     788.35  E(vib)   ...       0.05 
freq.     803.10  E(vib)   ...       0.05 
freq.     831.11  E(vib)   ...       0.04 
freq.     839.96  E(vib)   ...       0.04 
freq.     846.71  E(vib)   ...       0.04 
freq.     865.70  E(vib)   ...       0.04 
freq.     870.68  E(vib)   ...       0.04 
freq.     906.79  E(vib)   ...       0.03 
freq.     950.21  E(vib)   ...       0.03 
freq.     974.75  E(vib)   ...       0.03 
freq.    1006.13  E(vib)   ...       0.02 
freq.    1017.87  E(vib)   ...       0.02 
freq.    1028.79  E(vib)   ...       0.02 
freq.    1036.38  E(vib)   ...       0.02 
freq.    1038.17  E(vib)   ...       0.02 
freq.    1040.72  E(vib)   ...       0.02 
freq.    1048.71  E(vib)   ...       0.02 
freq.    1050.33  E(vib)   ...       0.02 
freq.    1056.32  E(vib)   ...       0.02 
freq.    1081.41  E(vib)   ...       0.02 
freq.    1124.48  E(vib)   ...       0.01 
freq.    1130.69  E(vib)   ...       0.01 
freq.    1160.03  E(vib)   ...       0.01 
freq.    1161.68  E(vib)   ...       0.01 
freq.    1190.27  E(vib)   ...       0.01 
freq.    1210.55  E(vib)   ...       0.01 
freq.    1223.62  E(vib)   ...       0.01 
freq.    1232.72  E(vib)   ...       0.01 
freq.    1260.19  E(vib)   ...       0.01 
freq.    1280.65  E(vib)   ...       0.01 
freq.    1293.52  E(vib)   ...       0.01 
freq.    1307.24  E(vib)   ...       0.01 
freq.    1316.85  E(vib)   ...       0.01 
freq.    1339.04  E(vib)   ...       0.01 
freq.    1349.91  E(vib)   ...       0.01 
freq.    1354.10  E(vib)   ...       0.01 
freq.    1369.21  E(vib)   ...       0.01 
freq.    1373.69  E(vib)   ...       0.01 
freq.    1385.44  E(vib)   ...       0.00 
freq.    1386.95  E(vib)   ...       0.00 
freq.    1390.12  E(vib)   ...       0.00 
freq.    1396.97  E(vib)   ...       0.00 
freq.    1410.58  E(vib)   ...       0.00 
freq.    1412.98  E(vib)   ...       0.00 
freq.    1417.33  E(vib)   ...       0.00 
freq.    1423.18  E(vib)   ...       0.00 
freq.    1433.67  E(vib)   ...       0.00 
freq.    1453.43  E(vib)   ...       0.00 
freq.    1456.32  E(vib)   ...       0.00 
freq.    1478.76  E(vib)   ...       0.00 
freq.    1480.11  E(vib)   ...       0.00 
freq.    1488.83  E(vib)   ...       0.00 
freq.    1497.45  E(vib)   ...       0.00 
freq.    1498.94  E(vib)   ...       0.00 
freq.    1501.00  E(vib)   ...       0.00 
freq.    1505.34  E(vib)   ...       0.00 
freq.    1520.08  E(vib)   ...       0.00 
freq.    1541.74  E(vib)   ...       0.00 
freq.    1563.33  E(vib)   ...       0.00 
freq.    1591.05  E(vib)   ...       0.00 
freq.    1658.18  E(vib)   ...       0.00 
freq.    1680.10  E(vib)   ...       0.00 
freq.    1753.53  E(vib)   ...       0.00 
freq.    2859.31  E(vib)   ...       0.00 
freq.    2973.82  E(vib)   ...       0.00 
freq.    2998.23  E(vib)   ...       0.00 
freq.    2999.82  E(vib)   ...       0.00 
freq.    3018.75  E(vib)   ...       0.00 
freq.    3029.49  E(vib)   ...       0.00 
freq.    3046.78  E(vib)   ...       0.00 
freq.    3048.39  E(vib)   ...       0.00 
freq.    3071.55  E(vib)   ...       0.00 
freq.    3093.32  E(vib)   ...       0.00 
freq.    3095.75  E(vib)   ...       0.00 
freq.    3099.27  E(vib)   ...       0.00 
freq.    3127.60  E(vib)   ...       0.00 
freq.    3156.79  E(vib)   ...       0.00 
freq.    3210.90  E(vib)   ...       0.00 
freq.    3402.12  E(vib)   ...       0.00 
freq.    3450.32  E(vib)   ...       0.00 
freq.    3536.61  E(vib)   ...       0.00 
freq.    3691.31  E(vib)   ...       0.00 
freq.    3707.83  E(vib)   ...       0.00 

------------
INNER ENERGY
------------

The inner energy is: U= E(el) + E(ZPE) + E(vib) + E(rot) + E(trans)
    E(el)   - is the total energy from the electronic structure calculation
              = E(kin-el) + E(nuc-el) + E(el-el) + E(nuc-nuc)
    E(ZPE)  - the the zero temperature vibrational energy from the frequency calculation
    E(vib)  - the the finite temperature correction to E(ZPE) due to population
              of excited vibrational states
    E(rot)  - is the rotational thermal energy
    E(trans)- is the translational thermal energy

Summary of contributions to the inner energy U:
Electronic energy                ...  -1329.66258050 Eh
Zero point energy                ...      0.36970917 Eh     232.00 kcal/mol
Thermal vibrational correction   ...      0.02186917 Eh      13.72 kcal/mol
Thermal rotational correction    ...      0.00141627 Eh       0.89 kcal/mol
Thermal translational correction ...      0.00141627 Eh       0.89 kcal/mol
-----------------------------------------------------------------------
Total thermal energy                  -1329.26816962 Eh


Summary of corrections to the electronic energy:
(perhaps to be used in another calculation)
Total thermal correction                  0.02470171 Eh      15.50 kcal/mol
Non-thermal (ZPE) correction              0.36970917 Eh     232.00 kcal/mol
-----------------------------------------------------------------------
Total correction                          0.39441088 Eh     247.50 kcal/mol


--------
ENTHALPY
--------

The enthalpy is H = U + kB*T
                kB is Boltzmann's constant
Total thermal energy              ...  -1329.26816962 Eh 
Thermal Enthalpy correction       ...      0.00094421 Eh       0.59 kcal/mol
-----------------------------------------------------------------------
Total Enthalpy                    ...  -1329.26722541 Eh


Note: Only C1 symmetry has been detected, increase convergence thresholds 
      if your molecule has a higher symmetry. Symmetry factor of 1.0 is   
      used for the rotational entropy correction. 
 

Note: Rotational entropy computed according to Herzberg 
Infrared and Raman Spectra, Chapter V,1, Van Nostrand Reinhold, 1945 
Point Group:  C1, Symmetry Number:   1  
Rotational constants in cm-1:     0.009557     0.005024     0.003531 

Vibrational entropy computed according to the QRRHO of S. Grimme
Chem.Eur.J. 2012 18 9955 using a reference frequency of 100.0 cm-1


-------
ENTROPY
-------

The entropy contributions are T*S = T*(S(el)+S(vib)+S(rot)+S(trans))
     S(el)   - electronic entropy
     S(vib)  - vibrational entropy
     S(rot)  - rotational entropy
     S(trans)- translational entropy
The entropies will be listed as multiplied by the temperature to get
units of energy

Electronic entropy                ...      0.00000000 Eh      0.00 kcal/mol
Vibrational entropy               ...      0.03806639 Eh     23.89 kcal/mol
Rotational entropy                ...      0.01687073 Eh     10.59 kcal/mol
Translational entropy             ...      0.02074837 Eh     13.02 kcal/mol
-----------------------------------------------------------------------
Final entropy term                ...      0.07568549 Eh     47.49 kcal/mol

In case the symmetry of your molecule has not been determined correctly
or in case you have a reason to use a different symmetry number we print 
out the resulting rotational entropy values for sn=1,12:

 non-linear molecules -----------------------------------
|  sn= 1 | S(rot)=       0.01687073 Eh     10.59 kcal/mol|
|  sn= 2 | S(rot)=       0.01621627 Eh     10.18 kcal/mol|
|  sn= 3 | S(rot)=       0.01583344 Eh      9.94 kcal/mol|
|  sn= 4 | S(rot)=       0.01556182 Eh      9.77 kcal/mol|
|  sn= 5 | S(rot)=       0.01535113 Eh      9.63 kcal/mol|
|  sn= 6 | S(rot)=       0.01517898 Eh      9.52 kcal/mol|
|  sn= 7 | S(rot)=       0.01503344 Eh      9.43 kcal/mol|
|  sn= 8 | S(rot)=       0.01490736 Eh      9.35 kcal/mol|
|  sn= 9 | S(rot)=       0.01479615 Eh      9.28 kcal/mol|
|  sn=10 | S(rot)=       0.01469667 Eh      9.22 kcal/mol|
|  sn=11 | S(rot)=       0.01460668 Eh      9.17 kcal/mol|
|  sn=12 | S(rot)=       0.01452453 Eh      9.11 kcal/mol|
 linear molecules ---------------------------------------
|  Dinfh | S(rot)=       0.01065675 Eh      6.69 kcal/mol|
|  Cinfv | S(rot)=       0.01131121 Eh      7.10 kcal/mol|
 --------------------------------------------------------


-------------------
GIBBS FREE ENERGY
-------------------

The Gibbs free energy is G = H - T*S

Total enthalpy                    ...  -1329.26722541 Eh 
Total entropy correction          ...     -0.07568549 Eh    -47.49 kcal/mol
-----------------------------------------------------------------------
Final Gibbs free energy         ...  -1329.34291090 Eh

For completeness - the Gibbs free energy minus the electronic energy
G-E(el)                           ...      0.31966960 Eh    200.60 kcal/mol


Maximum memory used throughout the entire PROP-calculation: 167.5 MB

--------------------------------
SUGGESTED CITATIONS FOR THIS RUN
--------------------------------

Below you find a list of papers that are relevant to this ORCA run
We neither can nor want to force you to cite these papers, but we appreciate if you do
You receive ORCA, which is the product of decades of hard work by many enthusiastic individuals, for free
The only thing we kindly ask in return is that you cite our papers,
We deeply appreciate it, if you show your appreciation for ORCA by not just citing the generic ORCA reference.

Please note that relegating all ORCA citations to the supporting information does *not* help us.
SI sections are not indexed - citations you put there will not count into any citation statistics
But we need these citations in order to attract the funding resources that allow us to do what we are doing

Therefore, if you are a happy ORCA user, please consider citing a few of the papers listed below in the main body of your paper

In addition to the list printed below, the program has created the file m1_00_Vitamin_B2-QM3_0000-B97-3C-TZ.bibtex that contains the list in bibtex format
You can import this file easily into all common literature databanks and citation aid programs


List of essential papers. We consider these as the minimum necessary citations

  1. Neese,F.
     Software update: the ORCA program system, version 5.0
     WIRES Comput. Molec. Sci., 2022 12(1)e1606
     doi.org/10.1002/wcms.1606

List of papers to cite with high priority. The work reported in these papers was absolutely
necessary for this run to complete.
Our perspective: the developers of density functionals and basis sets usually get cited in chemistry papers
Good! But without the algorithms to do something with them, the functionals or basis sets would not do anything.
Hence, in our opinion, the algorithm design and method developments papers are equally worthy of getting cited

  1. Neese,F.
     An improvement of the resolution of the identity approximation for the formation of the Coulomb matrix
     J. Comp. Chem., 2003 24(14)1740-1747
     doi.org/10.1002/jcc.10318
  2. Bykov,D.; Petrenko,T.; Izsak,R.; Kossmann,S.; Becker,U.; Valeev,E.; Neese,F.
     Efficient implementation of the analytic second derivatives of Hartree-Fock and hybrid DFT energies: a detailed analysis of different approximations
     Molec. Phys., 2015 113 1961-1977
     doi.org/10.1080/00268976.2015.1025114
  3. Neese,F.
     The SHARK Integral Generation and Digestion System
     J. Comp. Chem., 2022  1-16
     doi.org/10.1002/jcc.26942
  4. Grimme,S.; Antony,J.; Ehrlich,S.; Krieg,H.
     A consistent and accurate ab initio parametrization of density functional dispersion correction (DFT-D) for the 94 elements H-Pu
     J. Chem. Phys., 2010 132 154104
     doi.org/10.1063/1.3382344
  5. Grimme,S.; Ehrlich,S.; Goerigk,L.
     Effect of the damping function in dispersion corrected density functional theory
     J. Comput. Chem., 2011 32(7)1456-1465
     doi.org/10.1002/jcc.21759

List of suggested additional citations. These are papers that are important in the 'surrounding' of 
of this run, or papers that preceded the highly important papers. If you like your results we are grateful for a citation.

  1. Neese,F.
     The ORCA program system
     WIRES Comput. Molec. Sci., 2012 2(1)73-78
     doi.org/10.1002/wcms.81
  2. Neese,F.
     Software update: the ORCA program system, version 4.0
     WIRES Comput. Molec. Sci., 2018 8(1)1-6
     doi.org/10.1002/wcms.1327
  3. Neese,F.; Wennmohs,F.; Becker,U.; Riplinger,C.
     The ORCA quantum chemistry program package
     J. Chem. Phys., 2020 152 Art. No. L224108
     doi.org/10.1063/5.0004608

List of optional additional citations

  1. Neese,F.
     Approximate second-order SCF convergence for spin unrestricted wavefunctions
     Chem. Phys. Lett., 2000 325(1-3)93-98
     doi.org/10.1016/s0009-2614(00)00662-x

Timings for individual modules:

Sum of individual times          ...     1072.667 sec (=  17.878 min)
Startup calculation              ...       71.655 sec (=   1.194 min)   6.7 %
SCF iterations                   ...      257.591 sec (=   4.293 min)  24.0 %
Property integrals               ...      218.424 sec (=   3.640 min)  20.4 %
SCF Response                     ...      322.162 sec (=   5.369 min)  30.0 %
Property calculations            ...       81.692 sec (=   1.362 min)   7.6 %
SCF Gradient evaluation          ...      120.952 sec (=   2.016 min)  11.3 %
Geometry relaxation              ...        0.190 sec (=   0.003 min)   0.0 %
                             ****ORCA TERMINATED NORMALLY****
TOTAL RUN TIME: 0 days 0 hours 17 minutes 55 seconds 680 msec
